<LesHouchesEvents version="3.0">
<header>
<!--
#*********************************************************************
#                                                                    *
#                        MadGraph5_aMC@NLO                           *
#                                                                    *
#                           Going Beyond                             *
#                                                                    *
#                   http://madgraph.hep.uiuc.edu                     *
#                   http://madgraph.phys.ucl.ac.be                   *
#                   http://amcatnlo.cern.ch                          *
#                                                                    *
#                     The MadGraph5_aMC@NLO team                     *
#                                                                    *
#....................................................................*
#                                                                    *
# This file contains all the information necessary to reproduce      *
# the events generated:                                              *
#                                                                    *
# 1. software version                                                *
# 2. proc_card          : code generation info including model       *
# 3. param_card         : model primary parameters in the LH format  *
# 4. run_card           : running parameters (collider and cuts)     *
# 5. pythia_card        : present only if pythia has been run        *
# 6. pgs_card           : present only if pgs has been run           *
# 7. delphes_cards      : present only if delphes has been run       *
#                                                                    *
#                                                                    *
#*********************************************************************
-->
<MGVersion>
2.2.2
</MGVersion>
<MG5ProcCard>
#************************************************************
#*                     MadGraph5_aMC@NLO                    *
#*                                                          *
#*                *                       *                 *
#*                  *        * *        *                   *
#*                    * * * * 5 * * * *                     *
#*                  *        * *        *                   *
#*                *                       *                 *
#*                                                          *
#*                                                          *
#*         VERSION 2.2.2                 2014-11-06         *
#*                                                          *
#*    The MadGraph5_aMC@NLO Development Team - Find us at   *
#*    https://server06.fynu.ucl.ac.be/projects/madgraph     *
#*                                                          *
#************************************************************
#*                                                          *
#*               Command File for MadGraph5_aMC@NLO         *
#*                                                          *
#*     run as ./bin/mg5_aMC  filename                       *
#*                                                          *
#************************************************************
set group_subprocesses Auto
set ignore_six_quark_processes False
set loop_optimized_output True
set complex_mass_scheme False
import model sm
define p = g u c d s u~ c~ d~ s~
define j = g u c d s u~ c~ d~ s~
define l+ = e+ mu+
define l- = e- mu-
define vl = ve vm vt
define vl~ = ve~ vm~ vt~
import model Higgs_hhxx_scalar_UFO
generate p p > h chi chi
output Higgs_hhxx_scalar_nohdecay_100GeV_13TeV
</MG5ProcCard>
<MGProcCard>
#*********************************************************************
#                        MadGraph/MadEvent                           *
#                   http://madgraph.hep.uiuc.edu                     *
#                                                                    *
#                          proc_card.dat                             *
#*********************************************************************
#                                                                    *
#            This Files is generated by MADGRAPH 5                   *
#                                                                    *
# WARNING: This Files is generated for MADEVENT (compatibility issue)*
#          This files is NOT a valid MG4 proc_card.dat               *
#          Running this in MG4 will NEVER reproduce the result of MG5*
#                                                                    *
#*********************************************************************
#*********************************************************************
# Process(es) requested : mg2 input                                  *
#*********************************************************************
# Begin PROCESS # This is TAG. Do not modify this line
p p > h chi chi           #Process
# Be carefull the coupling are here in MG5 convention
          
end_coup           # End the couplings input

done               # this tells MG there are no more procs
# End PROCESS  # This is TAG. Do not modify this line
#*********************************************************************
# Model information                                                  *
#*********************************************************************
# Begin MODEL  # This is TAG. Do not modify this line
Higgs_hhxx_scalar_UFO
# End   MODEL  # This is TAG. Do not modify this line
#*********************************************************************
# Start multiparticle definitions                                    *
#*********************************************************************
# Begin MULTIPARTICLES # This is TAG. Do not modify this line

# End  MULTIPARTICLES # This is TAG. Do not modify this line
</MGProcCard>
<MGRunCard>
#*********************************************************************
#                       MadGraph5_aMC@NLO                            *
#                                                                    *
#                     run_card.dat MadEvent                          *
#                                                                    *
#  This file is used to set the parameters of the run.               *
#                                                                    *
#  Some notation/conventions:                                        *
#                                                                    *
#   Lines starting with a '# ' are info or comments                  *
#                                                                    *
#   mind the format:   value    = variable     ! comment             *
#*********************************************************************
#
#*******************                                                 
# Running parameters
#*******************                                                 
#                                                                    
#*********************************************************************
# Tag name for the run (one word)                                    *
#*********************************************************************
  tag_1     = run_tag ! name of the run 
#*********************************************************************
# Run to generate the grid pack                                      *
#*********************************************************************
  .false.     = gridpack  !True = setting up the grid pack
#*********************************************************************
# Number of events and rnd seed                                      *
# Warning: Do not generate more than 1M events in a single run       *
# If you want to run Pythia, avoid more than 50k events in a run.    *
#*********************************************************************
  100000 = nevents ! Number of unweighted events requested 
 21 = iseed   ! rnd seed (0=assigned automatically=default))
#*********************************************************************
# Collider type and energy                                           *
# lpp: 0=No PDF, 1=proton, -1=antiproton, 2=photon from proton,      *
#                                         3=photon from electron     *
#*********************************************************************
        1     = lpp1    ! beam 1 type 
        1     = lpp2    ! beam 2 type
     6500     = ebeam1  ! beam 1 total energy in GeV
     6500     = ebeam2  ! beam 2 total energy in GeV
#*********************************************************************
# Beam polarization from -100 (left-handed) to 100 (right-handed)    *
#*********************************************************************
        0     = polbeam1 ! beam polarization for beam 1
        0     = polbeam2 ! beam polarization for beam 2
#*********************************************************************
# PDF CHOICE: this automatically fixes also alpha_s and its evol.    *
#*********************************************************************
 'nn23lo1'    = pdlabel     ! PDF set                                     
 230000    = lhaid     ! if pdlabel=lhapdf, this is the lhapdf number
#*********************************************************************
# Renormalization and factorization scales                           *
#*********************************************************************
 F        = fixed_ren_scale  ! if .true. use fixed ren scale
 F        = fixed_fac_scale  ! if .true. use fixed fac scale
 91.1880  = scale            ! fixed ren scale
 91.1880  = dsqrt_q2fact1    ! fixed fact scale for pdf1
 91.1880  = dsqrt_q2fact2    ! fixed fact scale for pdf2
 1        = scalefact        ! scale factor for event-by-event scales
#*********************************************************************
# Matching - Warning! ickkw > 1 is still beta
#*********************************************************************
 0        = ickkw            ! 0 no matching, 1 MLM, 2 CKKW matching
 1        = highestmult      ! for ickkw=2, highest mult group
 1        = ktscheme         ! for ickkw=1, 1 Durham kT, 2 Pythia pTE
 1        = alpsfact         ! scale factor for QCD emission vx
 F        = chcluster        ! cluster only according to channel diag
 T        = pdfwgt           ! for ickkw=1, perform pdf reweighting
 5        = asrwgtflavor     ! highest quark flavor for a_s reweight
 T        = clusinfo         ! include clustering tag in output
 3.0      = lhe_version       ! Change the way clustering information pass to shower.        
#*********************************************************************
#**********************************************************
#
#**********************************************************
# Automatic ptj and mjj cuts if xqcut > 0
# (turn off for VBF and single top processes)
#**********************************************************
   T  = auto_ptj_mjj  ! Automatic setting of ptj and mjj
#**********************************************************
#                                                                    
#**********************************
# BW cutoff (M+/-bwcutoff*Gamma)
#**********************************
  15  = bwcutoff      ! (M+/-bwcutoff*Gamma)
#**********************************************************
# Apply pt/E/eta/dr/mij cuts on decay products or not
# (note that etmiss/ptll/ptheavy/ht/sorted cuts always apply)
#**********************************************************
   T  = cut_decays    ! Cut decay products 
#*************************************************************
# Number of helicities to sum per event (0 = all helicities)
# 0 gives more stable result, but longer run time (needed for
# long decay chains e.g.).
# Use >=2 if most helicities contribute, e.g. pure QCD.
#*************************************************************
   0  = nhel          ! Number of helicities used per event
#*******************                                                 
# Standard Cuts
#*******************                                                 
#                                                                    
#*********************************************************************
# Minimum and maximum pt's (for max, -1 means no cut)                *
#*********************************************************************
  0  = ptj       ! minimum pt for the jets 
  0  = ptb       ! minimum pt for the b 
  0  = pta       ! minimum pt for the photons 
  0  = ptl       ! minimum pt for the charged leptons 
  0  = misset    ! minimum missing Et (sum of neutrino's momenta)
  0  = ptheavy   ! minimum pt for one heavy final state
 1.0 = ptonium   ! minimum pt for the quarkonium states
 -1  = ptjmax    ! maximum pt for the jets
 -1  = ptbmax    ! maximum pt for the b
 -1  = ptamax    ! maximum pt for the photons
 -1  = ptlmax    ! maximum pt for the charged leptons
 -1  = missetmax ! maximum missing Et (sum of neutrino's momenta)
#*********************************************************************
# Minimum and maximum E's (in the center of mass frame)              *
#*********************************************************************
  0  = ej     ! minimum E for the jets 
  0  = eb     ! minimum E for the b 
  0  = ea     ! minimum E for the photons 
  0  = el     ! minimum E for the charged leptons 
 -1   = ejmax ! maximum E for the jets
 -1   = ebmax ! maximum E for the b
 -1   = eamax ! maximum E for the photons
 -1   = elmax ! maximum E for the charged leptons
#*********************************************************************
# Maximum and minimum absolute rapidity (for max, -1 means no cut)   *
#*********************************************************************
   5  = etaj    ! max rap for the jets 
  -1  = etab    ! max rap for the b
 2.5  = etaa    ! max rap for the photons 
 2.5  = etal    ! max rap for the charged leptons 
 0.6  = etaonium ! max rap for the quarkonium states
   0  = etajmin ! min rap for the jets
   0  = etabmin ! min rap for the b
   0  = etaamin ! min rap for the photons
   0  = etalmin ! main rap for the charged leptons
#*********************************************************************
# Minimum and maximum DeltaR distance                                *
#*********************************************************************
 0.4 = drjj    ! min distance between jets 
 0   = drbb    ! min distance between b's 
 0.4 = drll    ! min distance between leptons 
 0.4 = draa    ! min distance between gammas 
 0   = drbj    ! min distance between b and jet 
 0.4 = draj    ! min distance between gamma and jet 
 0.4 = drjl    ! min distance between jet and lepton 
 0   = drab    ! min distance between gamma and b 
 0   = drbl    ! min distance between b and lepton 
 0.4 = dral    ! min distance between gamma and lepton 
 -1  = drjjmax ! max distance between jets
 -1  = drbbmax ! max distance between b's
 -1  = drllmax ! max distance between leptons
 -1  = draamax ! max distance between gammas
 -1  = drbjmax ! max distance between b and jet
 -1  = drajmax ! max distance between gamma and jet
 -1  = drjlmax ! max distance between jet and lepton
 -1  = drabmax ! max distance between gamma and b
 -1  = drblmax ! max distance between b and lepton
 -1  = dralmax ! maxdistance between gamma and lepton
#*********************************************************************
# Minimum and maximum invariant mass for pairs                       *
# WARNING: for four lepton final state mmll cut require to have      *
#          different lepton masses for each flavor!                  *           
#*********************************************************************
 0   = mmjj    ! min invariant mass of a jet pair 
 0   = mmbb    ! min invariant mass of a b pair 
 0   = mmaa    ! min invariant mass of gamma gamma pair
 0   = mmll    ! min invariant mass of l+l- (same flavour) lepton pair
 -1  = mmjjmax ! max invariant mass of a jet pair
 -1  = mmbbmax ! max invariant mass of a b pair
 -1  = mmaamax ! max invariant mass of gamma gamma pair
 -1  = mmllmax ! max invariant mass of l+l- (same flavour) lepton pair
#*********************************************************************
# Minimum and maximum invariant mass for all letpons                 *
#*********************************************************************
 0   = mmnl    ! min invariant mass for all letpons (l+- and vl) 
 -1  = mmnlmax ! max invariant mass for all letpons (l+- and vl) 
#*********************************************************************
# Minimum and maximum pt for 4-momenta sum of leptons                *
#*********************************************************************
 0   = ptllmin  ! Minimum pt for 4-momenta sum of leptons(l and vl)
 -1  = ptllmax  ! Maximum pt for 4-momenta sum of leptons(l and vl)
#*********************************************************************
# Inclusive cuts                                                     *
#*********************************************************************
 0  = xptj ! minimum pt for at least one jet  
 0  = xptb ! minimum pt for at least one b 
 0  = xpta ! minimum pt for at least one photon 
 0  = xptl ! minimum pt for at least one charged lepton 
#*********************************************************************
# Control the pt's of the jets sorted by pt                          *
#*********************************************************************
 0   = ptj1min ! minimum pt for the leading jet in pt
 0   = ptj2min ! minimum pt for the second jet in pt
 0   = ptj3min ! minimum pt for the third jet in pt
 0   = ptj4min ! minimum pt for the fourth jet in pt
 -1  = ptj1max ! maximum pt for the leading jet in pt 
 -1  = ptj2max ! maximum pt for the second jet in pt
 -1  = ptj3max ! maximum pt for the third jet in pt
 -1  = ptj4max ! maximum pt for the fourth jet in pt
 0   = cutuse  ! reject event if fails any (0) / all (1) jet pt cuts
#*********************************************************************
# Control the pt's of leptons sorted by pt                           *
#*********************************************************************
 0   = ptl1min ! minimum pt for the leading lepton in pt
 0   = ptl2min ! minimum pt for the second lepton in pt
 0   = ptl3min ! minimum pt for the third lepton in pt
 0   = ptl4min ! minimum pt for the fourth lepton in pt
 -1  = ptl1max ! maximum pt for the leading lepton in pt 
 -1  = ptl2max ! maximum pt for the second lepton in pt
 -1  = ptl3max ! maximum pt for the third lepton in pt
 -1  = ptl4max ! maximum pt for the fourth lepton in pt
#*********************************************************************
# Control the Ht(k)=Sum of k leading jets                            *
#*********************************************************************
 0   = htjmin ! minimum jet HT=Sum(jet pt)
 -1  = htjmax ! maximum jet HT=Sum(jet pt)
 0   = ihtmin  !inclusive Ht for all partons (including b)
 -1  = ihtmax  !inclusive Ht for all partons (including b)
 0   = ht2min ! minimum Ht for the two leading jets
 0   = ht3min ! minimum Ht for the three leading jets
 0   = ht4min ! minimum Ht for the four leading jets
 -1  = ht2max ! maximum Ht for the two leading jets
 -1  = ht3max ! maximum Ht for the three leading jets
 -1  = ht4max ! maximum Ht for the four leading jets
#***********************************************************************
# Photon-isolation cuts, according to hep-ph/9801442                   *
# When ptgmin=0, all the other parameters are ignored                  *
# When ptgmin>0, pta and draj are not going to be used                 *
#***********************************************************************
   0 = ptgmin ! Min photon transverse momentum
 0.4 = R0gamma ! Radius of isolation code
 1.0 = xn ! n parameter of eq.(3.4) in hep-ph/9801442
 1.0 = epsgamma ! epsilon_gamma parameter of eq.(3.4) in hep-ph/9801442
 .true. = isoEM ! isolate photons from EM energy (photons and leptons)
#*********************************************************************
# WBF cuts                                                           *
#*********************************************************************
 0   = xetamin ! minimum rapidity for two jets in the WBF case  
 0   = deltaeta ! minimum rapidity for two jets in the WBF case 
#*********************************************************************
# KT DURHAM CUT                                                      *
#*********************************************************************
 -1    =  ktdurham        
 0.4  =  dparameter 
#*********************************************************************
# maximal pdg code for quark to be considered as a light jet         *
# (otherwise b cuts are applied)                                     *
#*********************************************************************
 4 = maxjetflavor    ! Maximum jet pdg code
#*********************************************************************
# Jet measure cuts                                                   *
#*********************************************************************
 0   = xqcut   ! minimum kt jet measure between partons
#*********************************************************************
#
#*********************************************************************
# Store info for systematics studies                                 *
# WARNING: If use_syst is T, matched Pythia output is                *
#          meaningful ONLY if plotted taking matchscale              *
#          reweighting into account!                                 *
#*********************************************************************
   F  = use_syst      ! Enable systematics studies
#
#**************************************
# Parameter of the systematics study
#  will be used by SysCalc (if installed)
#**************************************                                  
#
0.5 1 2 = sys_scalefact  # factorization/renormalization scale factor
0.5 1 2 = sys_alpsfact  # \alpha_s emission scale factors
30 50 = sys_matchscale # variation of merging scale
# PDF sets and number of members (0 or none for all members).
CT10nlo.LHgrid = sys_pdf # matching scales
# MSTW2008nlo68cl.LHgrid 1  = sys_pdf
</MGRunCard>
<slha>
######################################################################
## PARAM_CARD AUTOMATICALY GENERATED BY MG5 FOLLOWING UFO MODEL   ####
######################################################################
##                                                                  ##
##  Width set on Auto will be computed following the information    ##
##        present in the decay.py files of the model.               ##
##        See  arXiv:1402.1178 for more details.                    ##
##                                                                  ##
######################################################################

###################################
## INFORMATION FOR CKMBLOCK
###################################
Block ckmblock 
    1 2.277360e-01 # cabi 

###################################
## INFORMATION FOR MASS
###################################
Block mass 
    1 5.040000e-03 # MD 
    2 2.550000e-03 # MU 
    3 1.010000e-01 # MS 
    4 1.270000e+00 # MC 
    5 4.700000e+00 # MB 
    6 1.720000e+02 # MT 
   11 5.110000e-04 # Me 
   13 1.056600e-01 # MM 
   15 1.777000e+00 # MTA 
   23 9.118760e+01 # MZ 
   25 1.250000e+02 # MH 
  9000006 1.000000e+02 # Mchi 
## Dependent parameters, given by model restrictions.
## Those values should be edited following the 
## analytical expression. MG5 ignores those values 
## but they are important for interfacing the output of MG5
## to external program such as Pythia.
  12 0.000000 # ve : 0.0 
  14 0.000000 # vm : 0.0 
  16 0.000000 # vt : 0.0 
  21 0.000000 # g : 0.0 
  22 0.000000 # a : 0.0 
  24 79.824360 # w+ : cmath.sqrt(MZ__exp__2/2. + cmath.sqrt(MZ__exp__4/4. - (aEW*cmath.pi*MZ__exp__2)/(Gf*sqrt__2))) 

###################################
## INFORMATION FOR SMINPUTS
###################################
Block sminputs 
    1 1.279000e+02 # aEWM1 
    2 1.166370e-05 # Gf 
    3 1.184000e-01 # aS 
    4 1.000000e-02 # gDM 

###################################
## INFORMATION FOR YUKAWA
###################################
Block yukawa 
    1 5.040000e-03 # ymdo 
    2 2.550000e-03 # ymup 
    3 1.010000e-01 # yms 
    4 1.270000e+00 # ymc 
    5 4.700000e+00 # ymb 
    6 1.720000e+02 # ymt 
   11 5.110000e-04 # yme 
   13 1.056600e-01 # ymm 
   15 1.777000e+00 # ymtau 

###################################
## INFORMATION FOR DECAY
###################################
DECAY   6 1.508336e+00 # WT 
DECAY  23 2.495200e+00 # WZ 
DECAY  24 2.085000e+00 # WW 
DECAY  25 5.753088e-03 # WH 
## Dependent parameters, given by model restrictions.
## Those values should be edited following the 
## analytical expression. MG5 ignores those values 
## but they are important for interfacing the output of MG5
## to external program such as Pythia.
DECAY  1 0.000000 # d : 0.0 
DECAY  2 0.000000 # u : 0.0 
DECAY  3 0.000000 # s : 0.0 
DECAY  4 0.000000 # c : 0.0 
DECAY  5 0.000000 # b : 0.0 
DECAY  11 0.000000 # e- : 0.0 
DECAY  12 0.000000 # ve : 0.0 
DECAY  13 0.000000 # mu- : 0.0 
DECAY  14 0.000000 # vm : 0.0 
DECAY  15 0.000000 # ta- : 0.0 
DECAY  16 0.000000 # vt : 0.0 
DECAY  21 0.000000 # g : 0.0 
DECAY  22 0.000000 # a : 0.0 
DECAY  9000006 0.000000 # chi : 0.0 
#===========================================================
# QUANTUM NUMBERS OF NEW STATE(S) (NON SM PDG CODE)
#===========================================================

Block QNUMBERS 9000006  # chi 
        1 0  # 3 times electric charge
        2 1  # number of spin states (2S+1)
        3 1  # colour rep (1: singlet, 3: triplet, 8: octet)
        4 0  # Particle/Antiparticle distinction (0=own anti)
</slha>
## END BANNER##
<MGGenerationInfo>
#  Number of Events        :       100000
#  Integrated weight (pb)  :  0.73765E-13
#  Truncated wgt (pb)      :  0.12938E-17
#  Unit wgt                :  0.73765E-18
</MGGenerationInfo>
</header>
<init>
     2212     2212  0.65000000000E+04  0.65000000000E+04 0 0  200400  200400  3   1
  0.73764321807E-13  0.17126842535E-16  0.73765000000E-18   0
<generator name='MadGraph5_aMC@NLO' version='2.2.2'>please cite 1405.0301 </generator>
</init>
<event>
 5   0  0.7376500E-18  0.5152225E+03  0.7818609E-02  0.1035570E+00
       21   -1    0    0  502  501  0.00000000000E+00  0.00000000000E+00  0.74973442694E+03  0.74973442694E+03  0.00000000000E+00 0. -1.
       21   -1    0    0  501  502  0.00000000000E+00  0.00000000000E+00 -0.21747674393E+03  0.21747674393E+03  0.00000000000E+00 0. -1.
       25    1    1    2    0    0 -0.12853443048E+03 -0.15608791223E+03  0.34509543284E+03  0.41904700683E+03  0.12500000000E+03 0.  0.
  9000006    1    1    2    0    0 -0.24915949138E+02  0.27708404315E+03  0.10268149354E+03  0.31295344799E+03  0.10000000000E+03 0.  0.
  9000006    1    1    2    0    0  0.15345037962E+03 -0.12099613092E+03  0.84480756637E+02  0.23521071605E+03  0.10000000000E+03 0.  0.
</event>
<event>
 5   0  0.7376500E-18  0.2833783E+03  0.7818609E-02  0.1106324E+00
       21   -1    0    0  502  501  0.00000000000E+00  0.00000000000E+00  0.13611834866E+03  0.13611834866E+03  0.00000000000E+00 0. -1.
       21   -1    0    0  501  502  0.00000000000E+00  0.00000000000E+00 -0.44599272632E+03  0.44599272632E+03  0.00000000000E+00 0. -1.
       25    1    1    2    0    0  0.11972391919E+02 -0.16213381361E+03 -0.16852535630E+03  0.26543644701E+03  0.12500000000E+03 0.  0.
  9000006    1    1    2    0    0 -0.47036025189E+02  0.11604011987E+03 -0.11743253282E+03  0.19866579185E+03  0.10000000000E+03 0.  0.
  9000006    1    1    2    0    0  0.35063633269E+02  0.46093693739E+02 -0.23916488549E+02  0.11800883613E+03  0.10000000000E+03 0.  0.
</event>
<event>
 5   0  0.7376500E-18  0.5897405E+03  0.7818609E-02  0.1014467E+00
       21   -1    0    0  502  501  0.00000000000E+00  0.00000000000E+00  0.40996252210E+03  0.40996252210E+03  0.00000000000E+00 0.  1.
       21   -1    0    0  501  502  0.00000000000E+00  0.00000000000E+00 -0.48596682575E+03  0.48596682575E+03  0.00000000000E+00 0.  1.
       25    1    1    2    0    0  0.27066734617E+03 -0.11619084470E+02  0.17247957298E+02  0.29886168613E+03  0.12500000000E+03 0.  0.
  9000006    1    1    2    0    0 -0.11365489417E+03 -0.70305354560E+01  0.19895573231E+03  0.25010047345E+03  0.10000000000E+03 0.  0.
  9000006    1    1    2    0    0 -0.15701245200E+03  0.18649619926E+02 -0.29220799326E+03  0.34696718826E+03  0.10000000000E+03 0.  0.
</event>
<event>
 5   0  0.7376500E-18  0.3019567E+03  0.7818609E-02  0.1105705E+00
       21   -1    0    0  502  501  0.00000000000E+00  0.00000000000E+00  0.13233607460E+04  0.13233607460E+04  0.00000000000E+00 0. -1.
       21   -1    0    0  501  502  0.00000000000E+00  0.00000000000E+00 -0.51456086347E+02  0.51456086347E+02  0.00000000000E+00 0. -1.
       25    1    1    2    0    0  0.29362872650E+02 -0.11476813215E+03  0.77048050531E+03  0.78949294582E+03  0.12500000000E+03 0.  0.
  9000006    1    1    2    0    0  0.63397717988E+02  0.11540579670E+03  0.26372176837E+03  0.31126666970E+03  0.10000000000E+03 0.  0.
  9000006    1    1    2    0    0 -0.92760590638E+02 -0.63766454760E+00  0.23770238599E+03  0.27405721683E+03  0.10000000000E+03 0.  0.
</event>
<event>
 5   0  0.7376500E-18  0.2594827E+03  0.7818609E-02  0.1133731E+00
       21   -1    0    0  502  501  0.00000000000E+00  0.00000000000E+00  0.57907105480E+03  0.57907105480E+03  0.00000000000E+00 0.  1.
       21   -1    0    0  501  502  0.00000000000E+00  0.00000000000E+00 -0.67144264469E+02  0.67144264469E+02  0.00000000000E+00 0.  1.
       25    1    1    2    0    0  0.47234556500E+02  0.15978867520E+02  0.18701760030E+03  0.23040618559E+03  0.12500000000E+03 0.  0.
  9000006    1    1    2    0    0 -0.17226615631E+02 -0.84407640680E+02  0.19657565511E+03  0.23677709829E+03  0.10000000000E+03 0.  0.
  9000006    1    1    2    0    0 -0.30007940870E+02  0.68428773160E+02  0.12833353491E+03  0.17903203539E+03  0.10000000000E+03 0.  0.
</event>
<event>
 5   0  0.7376500E-18  0.4421122E+03  0.7818609E-02  0.1067200E+00
       21   -1    0    0  502  501  0.00000000000E+00  0.00000000000E+00  0.14838851036E+04  0.14838851036E+04  0.00000000000E+00 0. -1.
       21   -1    0    0  501  502  0.00000000000E+00  0.00000000000E+00 -0.60570174319E+02  0.60570174319E+02  0.00000000000E+00 0. -1.
       25    1    1    2    0    0 -0.54820321640E+02 -0.68953034336E+02  0.28772400968E+03  0.32583722065E+03  0.12500000000E+03 0.  0.
  9000006    1    1    2    0    0  0.15238293436E+03  0.11721523187E+03  0.30015171559E+03  0.37020402704E+03  0.10000000000E+03 0.  0.
  9000006    1    1    2    0    0 -0.97562612717E+02 -0.48262197531E+02  0.83543920405E+03  0.84841403028E+03  0.10000000000E+03 0.  0.
</event>
<event>
 5   0  0.7376500E-18  0.2920312E+03  0.7818609E-02  0.1109979E+00
       21   -1    0    0  502  501  0.00000000000E+00  0.00000000000E+00  0.66905102750E+03  0.66905102750E+03  0.00000000000E+00 0. -1.
       21   -1    0    0  501  502  0.00000000000E+00  0.00000000000E+00 -0.97931420291E+02  0.97931420291E+02  0.00000000000E+00 0. -1.
       25    1    1    2    0    0 -0.11482473828E+03 -0.17812806173E+02  0.64943110882E+02  0.18260510463E+03  0.12500000000E+03 0.  0.
  9000006    1    1    2    0    0 -0.26244379566E+02 -0.23611049668E+02  0.12609948217E+03  0.16476446379E+03  0.10000000000E+03 0.  0.
  9000006    1    1    2    0    0  0.14106911785E+03  0.41423855841E+02  0.38007701415E+03  0.41961287937E+03  0.10000000000E+03 0.  0.
</event>
<event>
 5   0  0.7376500E-18  0.2584816E+03  0.7818609E-02  0.1128010E+00
       21   -1    0    0  502  501  0.00000000000E+00  0.00000000000E+00  0.12522829649E+03  0.12522829649E+03  0.00000000000E+00 0. -1.
       21   -1    0    0  501  502  0.00000000000E+00  0.00000000000E+00 -0.62853398796E+03  0.62853398796E+03  0.00000000000E+00 0. -1.
       25    1    1    2    0    0  0.95635471998E+01  0.93934461606E+02  0.31480716357E+02  0.15978479281E+03  0.12500000000E+03 0.  0.
  9000006    1    1    2    0    0  0.48392895261E+02 -0.78482617110E+02 -0.22435494790E+03  0.26236717810E+03  0.10000000000E+03 0.  0.
  9000006    1    1    2    0    0 -0.57956442461E+02 -0.15451844496E+02 -0.31043145993E+03  0.33161031352E+03  0.10000000000E+03 0.  0.
</event>
<event>
 5   0  0.7376500E-18  0.2430912E+03  0.7818609E-02  0.1130011E+00
       21   -1    0    0  502  501  0.00000000000E+00  0.00000000000E+00  0.19638187218E+03  0.19638187218E+03  0.00000000000E+00 0. -1.
       21   -1    0    0  501  502  0.00000000000E+00  0.00000000000E+00 -0.26823608258E+03  0.26823608258E+03  0.00000000000E+00 0. -1.
       25    1    1    2    0    0  0.33457059638E+02  0.12408794161E+03 -0.12141417234E+03  0.21652619550E+03  0.12500000000E+03 0.  0.
  9000006    1    1    2    0    0 -0.27644108162E+02 -0.83867842854E+02  0.12623141022E+02  0.13400505763E+03  0.10000000000E+03 0.  0.
  9000006    1    1    2    0    0 -0.58129514760E+01 -0.40220098759E+02  0.36936820920E+02  0.11408670163E+03  0.10000000000E+03 0.  0.
</event>
<event>
 5   0  0.7376500E-18  0.2346308E+03  0.7818609E-02  0.1147528E+00
       21   -1    0    0  502  501  0.00000000000E+00  0.00000000000E+00  0.60378250726E+03  0.60378250726E+03  0.00000000000E+00 0. -1.
       21   -1    0    0  501  502  0.00000000000E+00  0.00000000000E+00 -0.55267263998E+02  0.55267263998E+02  0.00000000000E+00 0. -1.
       25    1    1    2    0    0  0.35329413009E+02  0.13041049069E+02  0.20566379582E+03  0.24359973994E+03  0.12500000000E+03 0.  0.
  9000006    1    1    2    0    0 -0.44890582389E+02 -0.38247633064E+02  0.10709738082E+03  0.15794902596E+03  0.10000000000E+03 0.  0.
  9000006    1    1    2    0    0  0.95611693796E+01  0.25206583995E+02  0.23575406662E+03  0.25750100536E+03  0.10000000000E+03 0.  0.
</event>
<event>
 5   0  0.7376500E-18  0.2577724E+03  0.7818609E-02  0.1120136E+00
       21   -1    0    0  502  501  0.00000000000E+00  0.00000000000E+00  0.28668099598E+03  0.28668099598E+03  0.00000000000E+00 0.  1.
       21   -1    0    0  501  502  0.00000000000E+00  0.00000000000E+00 -0.22733716149E+03  0.22733716149E+03  0.00000000000E+00 0.  1.
       25    1    1    2    0    0  0.10978352439E+03  0.95944384332E+02  0.14689116514E+03  0.24178453529E+03  0.12500000000E+03 0.  0.
  9000006    1    1    2    0    0 -0.40645998337E+02 -0.78728996669E+02 -0.59661324674E+02  0.14632096828E+03  0.10000000000E+03 0.  0.
  9000006    1    1    2    0    0 -0.69137526050E+02 -0.17215387663E+02 -0.27886005980E+02  0.12591265389E+03  0.10000000000E+03 0.  0.
</event>
<event>
 5   0  0.7376500E-18  0.3879924E+03  0.7818609E-02  0.1084105E+00
       21   -1    0    0  502  501  0.00000000000E+00  0.00000000000E+00  0.20143283534E+03  0.20143283534E+03  0.00000000000E+00 0.  1.
       21   -1    0    0  501  502  0.00000000000E+00  0.00000000000E+00 -0.34991403049E+03  0.34991403049E+03  0.00000000000E+00 0.  1.
       25    1    1    2    0    0 -0.60922014867E+02  0.33134904805E+02 -0.37145182045E+02  0.14769623679E+03  0.12500000000E+03 0.  0.
  9000006    1    1    2    0    0  0.48494611609E+02 -0.11367753984E+03 -0.19370746602E+03  0.25059308213E+03  0.10000000000E+03 0.  0.
  9000006    1    1    2    0    0  0.12427403258E+02  0.80542635032E+02  0.82371452919E+02  0.15305754691E+03  0.10000000000E+03 0.  0.
</event>
<event>
 5   0  0.7376500E-18  0.2473568E+03  0.7818609E-02  0.1140783E+00
       21   -1    0    0  502  501  0.00000000000E+00  0.00000000000E+00  0.79347197899E+03  0.79347197899E+03  0.00000000000E+00 0. -1.
       21   -1    0    0  501  502  0.00000000000E+00  0.00000000000E+00 -0.47787380708E+02  0.47787380708E+02  0.00000000000E+00 0. -1.
       25    1    1    2    0    0  0.13804121210E+02 -0.36488858998E+02  0.35993620746E+03  0.38301574907E+03  0.12500000000E+03 0.  0.
  9000006    1    1    2    0    0 -0.49044565842E+02 -0.14686960600E+02  0.27308257346E+03  0.29528827978E+03  0.10000000000E+03 0.  0.
  9000006    1    1    2    0    0  0.35240444632E+02  0.51175819599E+02  0.11266581736E+03  0.16295533085E+03  0.10000000000E+03 0.  0.
</event>
<event>
 5   0  0.7376500E-18  0.2196486E+03  0.7818609E-02  0.1151514E+00
       21   -1    0    0  502  501  0.00000000000E+00  0.00000000000E+00  0.32869769249E+03  0.32869769249E+03  0.00000000000E+00 0.  1.
       21   -1    0    0  501  502  0.00000000000E+00  0.00000000000E+00 -0.13927959115E+03  0.13927959115E+03  0.00000000000E+00 0.  1.
       25    1    1    2    0    0  0.12331061450E+02 -0.71987525711E+02  0.20136241443E+03  0.24800419529E+03  0.12500000000E+03 0.  0.
  9000006    1    1    2    0    0  0.18276189949E+02  0.24082183912E+02 -0.97362004964E+01  0.10492265866E+03  0.10000000000E+03 0.  0.
  9000006    1    1    2    0    0 -0.30607251399E+02  0.47905341799E+02 -0.22081125918E+01  0.11505042969E+03  0.10000000000E+03 0.  0.
</event>
<event>
 5   0  0.7376500E-18  0.3558335E+03  0.7818609E-02  0.1077948E+00
       21   -1    0    0  502  501  0.00000000000E+00  0.00000000000E+00  0.34875728838E+02  0.34875728838E+02  0.00000000000E+00 0.  1.
       21   -1    0    0  501  502  0.00000000000E+00  0.00000000000E+00 -0.23694538714E+04  0.23694538714E+04  0.00000000000E+00 0.  1.
       25    1    1    2    0    0  0.17940896479E+03 -0.25532526864E+01 -0.93373329817E+03  0.95899789773E+03  0.12500000000E+03 0.  0.
  9000006    1    1    2    0    0 -0.20869744617E+01 -0.55603206227E+02 -0.80281746017E+03  0.81093276316E+03  0.10000000000E+03 0.  0.
  9000006    1    1    2    0    0 -0.17732199033E+03  0.58156458913E+02 -0.59802738426E+03  0.63439893938E+03  0.10000000000E+03 0.  0.
</event>
<event>
 5   0  0.7376500E-18  0.2561621E+03  0.7818609E-02  0.1134445E+00
       21   -1    0    0  502  501  0.00000000000E+00  0.00000000000E+00  0.56585165140E+03  0.56585165140E+03  0.00000000000E+00 0. -1.
       21   -1    0    0  501  502  0.00000000000E+00  0.00000000000E+00 -0.16442731048E+03  0.16442731048E+03  0.00000000000E+00 0. -1.
       25    1    1    2    0    0  0.47999300321E+02  0.31122436965E+02 -0.98113877471E+02  0.16889011773E+03  0.12500000000E+03 0.  0.
  9000006    1    1    2    0    0 -0.48506529143E+02 -0.67889598717E+02  0.16448468759E+03  0.20980251056E+03  0.10000000000E+03 0.  0.
  9000006    1    1    2    0    0  0.50722882215E+00  0.36767161752E+02  0.33505353080E+03  0.35158633359E+03  0.10000000000E+03 0.  0.
</event>
<event>
 5   0  0.7376500E-18  0.3862898E+03  0.7818609E-02  0.1073761E+00
       21   -1    0    0  502  501  0.00000000000E+00  0.00000000000E+00  0.16683817710E+04  0.16683817710E+04  0.00000000000E+00 0. -1.
       21   -1    0    0  501  502  0.00000000000E+00  0.00000000000E+00 -0.51562411160E+02  0.51562411160E+02  0.00000000000E+00 0. -1.
       25    1    1    2    0    0  0.88099652507E+02  0.11526505959E+03  0.68407686319E+03  0.71037577202E+03  0.12500000000E+03 0.  0.
  9000006    1    1    2    0    0 -0.91198065563E+02  0.36690956052E+02  0.70127918560E+03  0.71516138708E+03  0.10000000000E+03 0.  0.
  9000006    1    1    2    0    0  0.30984130563E+01 -0.15195601564E+03  0.23146331101E+03  0.29440702301E+03  0.10000000000E+03 0.  0.
</event>
<event>
 5   0  0.7376500E-18  0.1313501E+04  0.7818609E-02  0.9018927E-01
       21   -1    0    0  502  501  0.00000000000E+00  0.00000000000E+00  0.70171101312E+03  0.70171101312E+03  0.00000000000E+00 0.  1.
       21   -1    0    0  501  502  0.00000000000E+00  0.00000000000E+00 -0.61467061174E+03  0.61467061174E+03  0.00000000000E+00 0.  1.
       25    1    1    2    0    0  0.27143845489E+03 -0.40112048476E+03 -0.20523158466E+03  0.54066762566E+03  0.12500000000E+03 0.  0.
  9000006    1    1    2    0    0 -0.30271701252E+03  0.48009512517E+03  0.18211604618E+03  0.60439653635E+03  0.10000000000E+03 0.  0.
  9000006    1    1    2    0    0  0.31278557621E+02 -0.78974640404E+02  0.11015593986E+03  0.17131746286E+03  0.10000000000E+03 0.  0.
</event>
<event>
 5   0  0.7376500E-18  0.3126973E+03  0.7818609E-02  0.1087771E+00
       21   -1    0    0  502  501  0.00000000000E+00  0.00000000000E+00  0.16125397565E+03  0.16125397565E+03  0.00000000000E+00 0.  1.
       21   -1    0    0  501  502  0.00000000000E+00  0.00000000000E+00 -0.63451955054E+03  0.63451955054E+03  0.00000000000E+00 0.  1.
       25    1    1    2    0    0 -0.19182678306E+03  0.94435726932E+02 -0.24597272115E+02  0.24888882461E+03  0.12500000000E+03 0.  0.
  9000006    1    1    2    0    0  0.12133002761E+03 -0.10076930338E+03 -0.23036692493E+03  0.29655412357E+03  0.10000000000E+03 0.  0.
  9000006    1    1    2    0    0  0.70496755447E+02  0.63335764478E+01 -0.21830137785E+03  0.25033057802E+03  0.10000000000E+03 0.  0.
</event>
<event>
 5   0  0.7376500E-18  0.6030251E+03  0.7818609E-02  0.9899150E-01
       21   -1    0    0  502  501  0.00000000000E+00  0.00000000000E+00  0.17134778870E+03  0.17134778870E+03  0.00000000000E+00 0. -1.
       21   -1    0    0  501  502  0.00000000000E+00  0.00000000000E+00 -0.53055728804E+03  0.53055728804E+03  0.00000000000E+00 0. -1.
       25    1    1    2    0    0  0.14607637388E+03  0.16929479435E+02 -0.19003826145E+03  0.27085873642E+03  0.12500000000E+03 0.  0.
  9000006    1    1    2    0    0 -0.19750085399E+03 -0.11254654494E+03 -0.11668400432E+03  0.27438744317E+03  0.10000000000E+03 0.  0.
  9000006    1    1    2    0    0  0.51424480111E+02  0.95617065505E+02 -0.52487233561E+02  0.15665889715E+03  0.10000000000E+03 0.  0.
</event>
<event>
 5   0  0.7376500E-18  0.2429239E+03  0.7818609E-02  0.1133182E+00
       21   -1    0    0  502  501  0.00000000000E+00  0.00000000000E+00  0.16967229176E+03  0.16967229176E+03  0.00000000000E+00 0. -1.
       21   -1    0    0  501  502  0.00000000000E+00  0.00000000000E+00 -0.26131761321E+03  0.26131761321E+03  0.00000000000E+00 0. -1.
       25    1    1    2    0    0 -0.89418019858E+02 -0.63340317682E+02 -0.87893867618E+02  0.18803699127E+03  0.12500000000E+03 0.  0.
  9000006    1    1    2    0    0  0.44773490791E+02  0.51175431144E+02  0.35423135964E+02  0.12600947898E+03  0.10000000000E+03 0.  0.
  9000006    1    1    2    0    0  0.44644529066E+02  0.12164886538E+02 -0.39174589803E+02  0.11694343473E+03  0.10000000000E+03 0.  0.
</event>
<event>
 5   0  0.7376500E-18  0.4321550E+03  0.7818609E-02  0.1033181E+00
       21   -1    0    0  502  501  0.00000000000E+00  0.00000000000E+00  0.66533735232E+02  0.66533735232E+02  0.00000000000E+00 0. -1.
       21   -1    0    0  501  502  0.00000000000E+00  0.00000000000E+00 -0.70174149228E+03  0.70174149228E+03  0.00000000000E+00 0. -1.
       25    1    1    2    0    0  0.18054749732E+02  0.75180766013E+02 -0.28074222213E+03  0.31689007062E+03  0.12500000000E+03 0.  0.
  9000006    1    1    2    0    0 -0.45601150191E+02 -0.58824407600E+02 -0.59196140407E+02  0.13799985097E+03  0.10000000000E+03 0.  0.
  9000006    1    1    2    0    0  0.27546400459E+02 -0.16356358413E+02 -0.29526939451E+03  0.31338530593E+03  0.10000000000E+03 0.  0.
</event>
<event>
 5   0  0.7376500E-18  0.4498787E+03  0.7818609E-02  0.1067697E+00
       21   -1    0    0  502  501  0.00000000000E+00  0.00000000000E+00  0.17000840956E+03  0.17000840956E+03  0.00000000000E+00 0. -1.
       21   -1    0    0  501  502  0.00000000000E+00  0.00000000000E+00 -0.58408153047E+03  0.58408153047E+03  0.00000000000E+00 0. -1.
       25    1    1    2    0    0 -0.68766543368E+02 -0.11877362419E+02 -0.22370462468E+03  0.26559116764E+03  0.12500000000E+03 0.  0.
  9000006    1    1    2    0    0  0.28189564058E+02  0.18072556229E+03  0.51532599734E+01  0.20852562547E+03  0.10000000000E+03 0.  0.
  9000006    1    1    2    0    0  0.40576979310E+02 -0.16884819987E+03 -0.19552175621E+03  0.27997314693E+03  0.10000000000E+03 0.  0.
</event>
<event>
 5   0  0.7376500E-18  0.2584793E+03  0.7818609E-02  0.1127770E+00
       21   -1    0    0  502  501  0.00000000000E+00  0.00000000000E+00  0.78685121938E+02  0.78685121938E+02  0.00000000000E+00 0.  1.
       21   -1    0    0  501  502  0.00000000000E+00  0.00000000000E+00 -0.55148622163E+03  0.55148622163E+03  0.00000000000E+00 0.  1.
       25    1    1    2    0    0 -0.53570068740E+02 -0.79616677383E+02 -0.16342052501E+03  0.22702386565E+03  0.12500000000E+03 0.  0.
  9000006    1    1    2    0    0  0.59160085808E+02  0.24553405097E+01 -0.79542192856E+02  0.14082934671E+03  0.10000000000E+03 0.  0.
  9000006    1    1    2    0    0 -0.55900170676E+01  0.77161336873E+02 -0.22983838183E+03  0.26231813121E+03  0.10000000000E+03 0.  0.
</event>
<event>
 5   0  0.7376500E-18  0.3981541E+03  0.7818609E-02  0.1058646E+00
       21   -1    0    0  502  501  0.00000000000E+00  0.00000000000E+00  0.31929579641E+03  0.31929579641E+03  0.00000000000E+00 0. -1.
       21   -1    0    0  501  502  0.00000000000E+00  0.00000000000E+00 -0.70633631027E+03  0.70633631027E+03  0.00000000000E+00 0. -1.
       25    1    1    2    0    0 -0.22811815185E+03  0.53884895935E+02  0.18854703217E+03  0.32575520956E+03  0.12500000000E+03 0.  0.
  9000006    1    1    2    0    0  0.34524797020E+02 -0.15123283173E+02 -0.29830583812E+02  0.11095286852E+03  0.10000000000E+03 0.  0.
  9000006    1    1    2    0    0  0.19359335483E+03 -0.38761612762E+02 -0.54575696222E+03  0.58892402860E+03  0.10000000000E+03 0.  0.
</event>
<event>
 5   0  0.7376500E-18  0.7377999E+03  0.7818609E-02  0.9654687E-01
       21   -1    0    0  502  501  0.00000000000E+00  0.00000000000E+00  0.38634441040E+03  0.38634441040E+03  0.00000000000E+00 0.  1.
       21   -1    0    0  501  502  0.00000000000E+00  0.00000000000E+00 -0.35224311492E+03  0.35224311492E+03  0.00000000000E+00 0.  1.
       25    1    1    2    0    0  0.12185956033E+03 -0.14092080549E+03 -0.18355536431E+03  0.28987238163E+03  0.12500000000E+03 0.  0.
  9000006    1    1    2    0    0 -0.16860853446E+03  0.18207697560E+03  0.18870484323E+03  0.32739942088E+03  0.10000000000E+03 0.  0.
  9000006    1    1    2    0    0  0.46748974127E+02 -0.41156170105E+02  0.28951816558E+02  0.12131572281E+03  0.10000000000E+03 0.  0.
</event>
<event>
 5   0  0.7376500E-18  0.4789594E+03  0.7818609E-02  0.1057345E+00
       21   -1    0    0  502  501  0.00000000000E+00  0.00000000000E+00  0.49878319504E+03  0.49878319504E+03  0.00000000000E+00 0. -1.
       21   -1    0    0  501  502  0.00000000000E+00  0.00000000000E+00 -0.31876417293E+03  0.31876417293E+03  0.00000000000E+00 0. -1.
       25    1    1    2    0    0  0.96263573290E+02 -0.12697683819E+02 -0.16393859251E+03  0.22787884682E+03  0.12500000000E+03 0.  0.
  9000006    1    1    2    0    0  0.12711910176E+03  0.14919835811E+02  0.29978654841E+03  0.34096017677E+03  0.10000000000E+03 0.  0.
  9000006    1    1    2    0    0 -0.22338267505E+03 -0.22221519926E+01  0.44171066203E+02  0.24870834438E+03  0.10000000000E+03 0.  0.
</event>
<event>
 5   0  0.7376500E-18  0.8247487E+03  0.7818609E-02  0.9524869E-01
       21   -1    0    0  502  501  0.00000000000E+00  0.00000000000E+00  0.66211507542E+03  0.66211507542E+03  0.00000000000E+00 0. -1.
       21   -1    0    0  501  502  0.00000000000E+00  0.00000000000E+00 -0.25683239130E+03  0.25683239130E+03  0.00000000000E+00 0. -1.
       25    1    1    2    0    0 -0.16755715519E+03 -0.64613575744E+02 -0.83121078677E+02  0.23406073602E+03  0.12500000000E+03 0.  0.
  9000006    1    1    2    0    0 -0.15038679423E+02 -0.11664834538E+03  0.41931197618E+02  0.15997257169E+03  0.10000000000E+03 0.  0.
  9000006    1    1    2    0    0  0.18259583462E+03  0.18126192113E+03  0.44647256518E+03  0.52491415901E+03  0.10000000000E+03 0.  0.
</event>
<event>
 5   0  0.7376500E-18  0.3248215E+03  0.7818609E-02  0.1098955E+00
       21   -1    0    0  502  501  0.00000000000E+00  0.00000000000E+00  0.45466546123E+03  0.45466546123E+03  0.00000000000E+00 0. -1.
       21   -1    0    0  501  502  0.00000000000E+00  0.00000000000E+00 -0.15227052160E+03  0.15227052160E+03  0.00000000000E+00 0. -1.
       25    1    1    2    0    0 -0.75593803861E+01 -0.10698700308E+03  0.21448324655E+03  0.27042822728E+03  0.12500000000E+03 0.  0.
  9000006    1    1    2    0    0 -0.39776278525E+02  0.12016292733E+03  0.13992826206E+03  0.21354437469E+03  0.10000000000E+03 0.  0.
  9000006    1    1    2    0    0  0.47335658911E+02 -0.13175924247E+02 -0.52016568983E+02  0.12296338086E+03  0.10000000000E+03 0.  0.
</event>
<event>
 5   0  0.7376500E-18  0.2885200E+03  0.7818609E-02  0.1122538E+00
       21   -1    0    0  502  501  0.00000000000E+00  0.00000000000E+00  0.41728927451E+02  0.41728927451E+02  0.00000000000E+00 0. -1.
       21   -1    0    0  501  502  0.00000000000E+00  0.00000000000E+00 -0.11948055717E+04  0.11948055717E+04  0.00000000000E+00 0. -1.
       25    1    1    2    0    0  0.47948441187E+01  0.31477243044E+02 -0.58892172278E+03  0.60288274392E+03  0.12500000000E+03 0.  0.
  9000006    1    1    2    0    0 -0.78856224276E+02 -0.47806224079E+02 -0.15770485365E+03  0.20826559973E+03  0.10000000000E+03 0.  0.
  9000006    1    1    2    0    0  0.74061380158E+02  0.16328981035E+02 -0.40645006778E+03  0.42538615545E+03  0.10000000000E+03 0.  0.
</event>
<event>
 5   0  0.7376500E-18  0.2849572E+03  0.7818609E-02  0.1103853E+00
       21   -1    0    0  502  501  0.00000000000E+00  0.00000000000E+00  0.59968621424E+03  0.59968621424E+03  0.00000000000E+00 0. -1.
       21   -1    0    0  501  502  0.00000000000E+00  0.00000000000E+00 -0.10823579522E+03  0.10823579522E+03  0.00000000000E+00 0. -1.
       25    1    1    2    0    0 -0.17135047501E+03  0.34647860063E+02  0.28057149968E+03  0.35342159799E+03  0.12500000000E+03 0.  0.
  9000006    1    1    2    0    0  0.11936839983E+03 -0.59324349658E+02  0.99206427066E+02  0.19393325788E+03  0.10000000000E+03 0.  0.
  9000006    1    1    2    0    0  0.51982075182E+02  0.24676489595E+02  0.11167249228E+03  0.16056715359E+03  0.10000000000E+03 0.  0.
</event>
<event>
 5   0  0.7376500E-18  0.4150560E+03  0.7818609E-02  0.1056672E+00
       21   -1    0    0  502  501  0.00000000000E+00  0.00000000000E+00  0.73848949790E+03  0.73848949790E+03  0.00000000000E+00 0. -1.
       21   -1    0    0  501  502  0.00000000000E+00  0.00000000000E+00 -0.17292465498E+03  0.17292465498E+03  0.00000000000E+00 0. -1.
       25    1    1    2    0    0 -0.15139760943E+03 -0.15130873742E+03  0.38700340799E+03  0.45957829361E+03  0.12500000000E+03 0.  0.
  9000006    1    1    2    0    0 -0.31130379299E+02  0.12815042224E+03  0.17713283609E+03  0.24242044645E+03  0.10000000000E+03 0.  0.
  9000006    1    1    2    0    0  0.18252798873E+03  0.23158315184E+02  0.14285988415E+01  0.20941541282E+03  0.10000000000E+03 0.  0.
</event>
<event>
 5   0  0.7376500E-18  0.6964804E+03  0.7818609E-02  0.9723270E-01
       21   -1    0    0  502  501  0.00000000000E+00  0.00000000000E+00  0.60124682538E+02  0.60124682538E+02  0.00000000000E+00 0.  1.
       21   -1    0    0  501  502  0.00000000000E+00  0.00000000000E+00 -0.20169959549E+04  0.20169959549E+04  0.00000000000E+00 0.  1.
       25    1    1    2    0    0 -0.31065345106E+02  0.19012573402E+03 -0.48861160701E+03  0.53988809295E+03  0.12500000000E+03 0.  0.
  9000006    1    1    2    0    0  0.64454754446E+02 -0.28343723913E+03 -0.11245295599E+04  0.11657863505E+04  0.10000000000E+03 0.  0.
  9000006    1    1    2    0    0 -0.33389409340E+02  0.93311505108E+02 -0.34373010539E+03  0.37144619394E+03  0.10000000000E+03 0.  0.
</event>
<event>
 5   0  0.7376500E-18  0.3460842E+03  0.7818609E-02  0.1081412E+00
       21   -1    0    0  502  501  0.00000000000E+00  0.00000000000E+00  0.40941221109E+03  0.40941221109E+03  0.00000000000E+00 0. -1.
       21   -1    0    0  501  502  0.00000000000E+00  0.00000000000E+00 -0.25177326107E+03  0.25177326107E+03  0.00000000000E+00 0. -1.
       25    1    1    2    0    0 -0.16609517734E+03 -0.60485429384E+02 -0.91206191896E+02  0.23492480615E+03  0.12500000000E+03 0.  0.
  9000006    1    1    2    0    0  0.19980926100E+03  0.30513226295E+02  0.21469052218E+03  0.31136283990E+03  0.10000000000E+03 0.  0.
  9000006    1    1    2    0    0 -0.33714083656E+02  0.29972203089E+02  0.34154619740E+02  0.11489782611E+03  0.10000000000E+03 0.  0.
</event>
<event>
 5   0  0.7376500E-18  0.2268314E+03  0.7818609E-02  0.1143310E+00
       21   -1    0    0  502  501  0.00000000000E+00  0.00000000000E+00  0.92139617858E+02  0.92139617858E+02  0.00000000000E+00 0.  1.
       21   -1    0    0  501  502  0.00000000000E+00  0.00000000000E+00 -0.40559813918E+03  0.40559813918E+03  0.00000000000E+00 0.  1.
       25    1    1    2    0    0 -0.99499870736E+02 -0.33062879645E+01 -0.12855104242E+03  0.20508906924E+03  0.12500000000E+03 0.  0.
  9000006    1    1    2    0    0  0.43249232515E+02 -0.44059403369E+01 -0.67159109486E+02  0.12806347805E+03  0.10000000000E+03 0.  0.
  9000006    1    1    2    0    0  0.56250638221E+02  0.77122283014E+01 -0.11774836942E+03  0.16458520975E+03  0.10000000000E+03 0.  0.
</event>
<event>
 5   0  0.7376500E-18  0.2453207E+03  0.7818609E-02  0.1139226E+00
       21   -1    0    0  502  501  0.00000000000E+00  0.00000000000E+00  0.77560065208E+03  0.77560065208E+03  0.00000000000E+00 0. -1.
       21   -1    0    0  501  502  0.00000000000E+00  0.00000000000E+00 -0.75535713476E+02  0.75535713476E+02  0.00000000000E+00 0. -1.
       25    1    1    2    0    0 -0.50074683829E+01  0.61431352890E+02  0.37077502764E+02  0.14421729116E+03  0.12500000000E+03 0.  0.
  9000006    1    1    2    0    0  0.36401034833E+02  0.24942146089E+02  0.28144538023E+03  0.30192490464E+03  0.10000000000E+03 0.  0.
  9000006    1    1    2    0    0 -0.31393566450E+02 -0.86373498979E+02  0.38154205561E+03  0.40499416976E+03  0.10000000000E+03 0.  0.
</event>
<event>
 5   0  0.7376500E-18  0.3106009E+03  0.7818609E-02  0.1094378E+00
       21   -1    0    0  502  501  0.00000000000E+00  0.00000000000E+00  0.32324097112E+03  0.32324097112E+03  0.00000000000E+00 0. -1.
       21   -1    0    0  501  502  0.00000000000E+00  0.00000000000E+00 -0.33384919636E+03  0.33384919636E+03  0.00000000000E+00 0. -1.
       25    1    1    2    0    0 -0.22721971929E+02  0.17008158350E+03  0.19200802616E+03  0.28624485177E+03  0.12500000000E+03 0.  0.
  9000006    1    1    2    0    0  0.38362713328E+02 -0.17504333243E+03 -0.10661317334E+03  0.23125361561E+03  0.10000000000E+03 0.  0.
  9000006    1    1    2    0    0 -0.15640741399E+02  0.49617489235E+01 -0.96003078054E+02  0.13959170011E+03  0.10000000000E+03 0.  0.
</event>
<event>
 5   0  0.7376500E-18  0.3199951E+03  0.7818609E-02  0.1092138E+00
       21   -1    0    0  502  501  0.00000000000E+00  0.00000000000E+00  0.27859797213E+03  0.27859797213E+03  0.00000000000E+00 0.  1.
       21   -1    0    0  501  502  0.00000000000E+00  0.00000000000E+00 -0.25318881311E+03  0.25318881311E+03  0.00000000000E+00 0.  1.
       25    1    1    2    0    0  0.12800505363E+03  0.10191755752E+03 -0.26513756299E+02  0.20760650654E+03  0.12500000000E+03 0.  0.
  9000006    1    1    2    0    0 -0.63095005930E+02 -0.36748067348E+02  0.11980961810E+03  0.17229551595E+03  0.10000000000E+03 0.  0.
  9000006    1    1    2    0    0 -0.64910047697E+02 -0.65169490172E+02 -0.67886702785E+02  0.15188476275E+03  0.10000000000E+03 0.  0.
</event>
<event>
 5   0  0.7376500E-18  0.2350290E+03  0.7818609E-02  0.1147820E+00
       21   -1    0    0  502  501  0.00000000000E+00  0.00000000000E+00  0.90031894732E+02  0.90031894732E+02  0.00000000000E+00 0.  1.
       21   -1    0    0  501  502  0.00000000000E+00  0.00000000000E+00 -0.38985535748E+03  0.38985535748E+03  0.00000000000E+00 0.  1.
       25    1    1    2    0    0 -0.21630254537E+02  0.23338005673E+02 -0.16325158998E+03  0.20805915518E+03  0.12500000000E+03 0.  0.
  9000006    1    1    2    0    0 -0.25440971304E+02 -0.53858392597E+02 -0.93662593504E+02  0.14940097354E+03  0.10000000000E+03 0.  0.
  9000006    1    1    2    0    0  0.47071225840E+02  0.30520386924E+02 -0.42909279260E+02  0.12242712349E+03  0.10000000000E+03 0.  0.
</event>
<event>
 5   0  0.7376500E-18  0.7454312E+03  0.7818609E-02  0.9828939E-01
       21   -1    0    0  502  501  0.00000000000E+00  0.00000000000E+00  0.73274119757E+03  0.73274119757E+03  0.00000000000E+00 0. -1.
       21   -1    0    0  501  502  0.00000000000E+00  0.00000000000E+00 -0.80194023613E+03  0.80194023613E+03  0.00000000000E+00 0. -1.
       25    1    1    2    0    0  0.26924293329E+03  0.26932161754E+03  0.46775648429E+03  0.61599271050E+03  0.12500000000E+03 0.  0.
  9000006    1    1    2    0    0 -0.43983487806E+03 -0.66193267040E+02 -0.27321299653E+03  0.53148999053E+03  0.10000000000E+03 0.  0.
  9000006    1    1    2    0    0  0.17059194477E+03 -0.20312835050E+03 -0.26374252631E+03  0.38719873267E+03  0.10000000000E+03 0.  0.
</event>
<event>
 5   0  0.7376500E-18  0.3896717E+03  0.7818609E-02  0.1051140E+00
       21   -1    0    0  502  501  0.00000000000E+00  0.00000000000E+00  0.52490520518E+03  0.52490520518E+03  0.00000000000E+00 0. -1.
       21   -1    0    0  501  502  0.00000000000E+00  0.00000000000E+00 -0.26155015157E+03  0.26155015157E+03  0.00000000000E+00 0. -1.
       25    1    1    2    0    0  0.12042748715E+03 -0.30431809160E+03  0.10390031334E+03  0.36542106623E+03  0.12500000000E+03 0.  0.
  9000006    1    1    2    0    0 -0.81427953070E+02  0.17905966560E+03  0.12097081850E+03  0.25164819553E+03  0.10000000000E+03 0.  0.
  9000006    1    1    2    0    0 -0.38999534077E+02  0.12525842600E+03  0.38483921765E+02  0.16938609499E+03  0.10000000000E+03 0.  0.
</event>
<event>
 5   0  0.7376500E-18  0.2673572E+03  0.7818609E-02  0.1114940E+00
       21   -1    0    0  502  501  0.00000000000E+00  0.00000000000E+00  0.10939498549E+04  0.10939498549E+04  0.00000000000E+00 0.  1.
       21   -1    0    0  501  502  0.00000000000E+00  0.00000000000E+00 -0.49152057880E+02  0.49152057880E+02  0.00000000000E+00 0.  1.
       25    1    1    2    0    0 -0.13438940225E+02  0.15053292954E+03  0.46192437806E+03  0.50183652621E+03  0.12500000000E+03 0.  0.
  9000006    1    1    2    0    0  0.44480338262E+02 -0.80831949029E+02  0.36713291046E+03  0.39153400672E+03  0.10000000000E+03 0.  0.
  9000006    1    1    2    0    0 -0.31041398037E+02 -0.69700980514E+02  0.21574050852E+03  0.24973137988E+03  0.10000000000E+03 0.  0.
</event>
<event>
 5   0  0.7376500E-18  0.2359813E+03  0.7818609E-02  0.1137926E+00
       21   -1    0    0  502  501  0.00000000000E+00  0.00000000000E+00  0.37880702676E+02  0.37880702676E+02  0.00000000000E+00 0.  1.
       21   -1    0    0  501  502  0.00000000000E+00  0.00000000000E+00 -0.10483155192E+04  0.10483155192E+04  0.00000000000E+00 0.  1.
       25    1    1    2    0    0 -0.19779483344E+02 -0.10046267863E+03 -0.37359489840E+03  0.40704069314E+03  0.12500000000E+03 0.  0.
  9000006    1    1    2    0    0 -0.97994652874E+01  0.16462523781E+02 -0.25949995008E+03  0.27876023443E+03  0.10000000000E+03 0.  0.
  9000006    1    1    2    0    0  0.29578948632E+02  0.84000154852E+02 -0.37733996800E+03  0.40039529426E+03  0.10000000000E+03 0.  0.
</event>
<event>
 5   0  0.7376500E-18  0.2833625E+03  0.7818609E-02  0.1109943E+00
       21   -1    0    0  502  501  0.00000000000E+00  0.00000000000E+00  0.34803486801E+03  0.34803486801E+03  0.00000000000E+00 0.  1.
       21   -1    0    0  501  502  0.00000000000E+00  0.00000000000E+00 -0.15967942789E+03  0.15967942789E+03  0.00000000000E+00 0.  1.
       25    1    1    2    0    0 -0.61676136092E+01 -0.13892597753E+03  0.92206147760E+02  0.20848366932E+03  0.12500000000E+03 0.  0.
  9000006    1    1    2    0    0  0.39341685590E+02  0.32852914009E+01  0.62029757939E+02  0.12412192487E+03  0.10000000000E+03 0.  0.
  9000006    1    1    2    0    0 -0.33174071980E+02  0.13564068613E+03  0.34119534416E+02  0.17510870171E+03  0.10000000000E+03 0.  0.
</event>
<event>
 5   0  0.7376500E-18  0.3977173E+03  0.7818609E-02  0.1084722E+00
       21   -1    0    0  502  501  0.00000000000E+00  0.00000000000E+00  0.33109621598E+03  0.33109621598E+03  0.00000000000E+00 0. -1.
       21   -1    0    0  501  502  0.00000000000E+00  0.00000000000E+00 -0.21646862313E+03  0.21646862313E+03  0.00000000000E+00 0. -1.
       25    1    1    2    0    0 -0.48834832438E+01 -0.37336751483E+02  0.67787922380E+02  0.14709889136E+03  0.12500000000E+03 0.  0.
  9000006    1    1    2    0    0 -0.23876686795E+02  0.11944244414E+03  0.16117537802E+03  0.22541982192E+03  0.10000000000E+03 0.  0.
  9000006    1    1    2    0    0  0.28760170039E+02 -0.82105692654E+02 -0.11433570755E+03  0.17504612583E+03  0.10000000000E+03 0.  0.
</event>
<event>
 5   0  0.7376500E-18  0.9243088E+03  0.7818609E-02  0.9395694E-01
       21   -1    0    0  502  501  0.00000000000E+00  0.00000000000E+00  0.66500288922E+03  0.66500288922E+03  0.00000000000E+00 0.  1.
       21   -1    0    0  501  502  0.00000000000E+00  0.00000000000E+00 -0.32118157259E+03  0.32118157259E+03  0.00000000000E+00 0.  1.
       25    1    1    2    0    0  0.16976618643E+03 -0.26067565406E+03  0.45344610786E+02  0.33830975215E+03  0.12500000000E+03 0.  0.
  9000006    1    1    2    0    0 -0.30092009423E+03  0.25720175175E+03  0.18922719270E+03  0.45001397164E+03  0.10000000000E+03 0.  0.
  9000006    1    1    2    0    0  0.13115390780E+03  0.34739023126E+01  0.10924951314E+03  0.19786073802E+03  0.10000000000E+03 0.  0.
</event>
<event>
 5   0  0.7376500E-18  0.2594321E+03  0.7818609E-02  0.1132421E+00
       21   -1    0    0  502  501  0.00000000000E+00  0.00000000000E+00  0.12975423885E+03  0.12975423885E+03  0.00000000000E+00 0. -1.
       21   -1    0    0  501  502  0.00000000000E+00  0.00000000000E+00 -0.35833709091E+03  0.35833709091E+03  0.00000000000E+00 0. -1.
       25    1    1    2    0    0 -0.19137821227E+02  0.57791379829E+02 -0.17443883653E+03  0.22306951265E+03  0.12500000000E+03 0.  0.
  9000006    1    1    2    0    0 -0.91228379098E+00  0.11416096033E+02 -0.91711088638E+02  0.13616931846E+03  0.10000000000E+03 0.  0.
  9000006    1    1    2    0    0  0.20050105018E+02 -0.69207475862E+02  0.37567073111E+02  0.12885249865E+03  0.10000000000E+03 0.  0.
</event>
<event>
 5   0  0.7376500E-18  0.8079409E+03  0.7818609E-02  0.9599369E-01
       21   -1    0    0  502  501  0.00000000000E+00  0.00000000000E+00  0.26053443927E+03  0.26053443927E+03  0.00000000000E+00 0. -1.
       21   -1    0    0  501  502  0.00000000000E+00  0.00000000000E+00 -0.23134341805E+04  0.23134341805E+04  0.00000000000E+00 0. -1.
       25    1    1    2    0    0 -0.37516406498E+03 -0.55112500647E+03 -0.57323709738E+03  0.88809493762E+03  0.12500000000E+03 0.  0.
  9000006    1    1    2    0    0  0.30969502456E+03  0.58966704601E+03 -0.11446698691E+04  0.13281142054E+04  0.10000000000E+03 0.  0.
  9000006    1    1    2    0    0  0.65469040419E+02 -0.38542039535E+02 -0.33499277468E+03  0.35775947668E+03  0.10000000000E+03 0.  0.
</event>
<event>
 5   0  0.7376500E-18  0.2776151E+03  0.7818609E-02  0.1120096E+00
       21   -1    0    0  502  501  0.00000000000E+00  0.00000000000E+00  0.48381503294E+03  0.48381503294E+03  0.00000000000E+00 0. -1.
       21   -1    0    0  501  502  0.00000000000E+00  0.00000000000E+00 -0.98787500790E+02  0.98787500790E+02  0.00000000000E+00 0. -1.
       25    1    1    2    0    0  0.28623938648E+02 -0.85082295684E+02  0.18384563003E+03  0.23975517218E+03  0.12500000000E+03 0.  0.
  9000006    1    1    2    0    0  0.68321120644E+01  0.47324800377E+02 -0.16414779793E+01  0.11085580245E+03  0.10000000000E+03 0.  0.
  9000006    1    1    2    0    0 -0.35456050713E+02  0.37757495307E+02  0.20282338010E+03  0.23199155911E+03  0.10000000000E+03 0.  0.
</event>
<event>
 5   0  0.7376500E-18  0.2104309E+03  0.7818609E-02  0.1161660E+00
       21   -1    0    0  502  501  0.00000000000E+00  0.00000000000E+00  0.82784766354E+02  0.82784766354E+02  0.00000000000E+00 0. -1.
       21   -1    0    0  501  502  0.00000000000E+00  0.00000000000E+00 -0.35511378865E+03  0.35511378865E+03  0.00000000000E+00 0. -1.
       25    1    1    2    0    0  0.73959573013E+01  0.34265289576E+02 -0.77930612218E+02  0.15141661261E+03  0.12500000000E+03 0.  0.
  9000006    1    1    2    0    0  0.73215662155E+01 -0.41348312721E+02 -0.89265704477E+02  0.14046940696E+03  0.10000000000E+03 0.  0.
  9000006    1    1    2    0    0 -0.14717523517E+02  0.70830231448E+01 -0.10513270560E+03  0.14601253543E+03  0.10000000000E+03 0.  0.
</event>
<event>
 5   0  0.7376500E-18  0.2701357E+03  0.7818609E-02  0.1110582E+00
       21   -1    0    0  502  501  0.00000000000E+00  0.00000000000E+00  0.15111182823E+03  0.15111182823E+03  0.00000000000E+00 0. -1.
       21   -1    0    0  501  502  0.00000000000E+00  0.00000000000E+00 -0.42686852518E+03  0.42686852518E+03  0.00000000000E+00 0. -1.
       25    1    1    2    0    0 -0.15314506153E+03 -0.77511532795E+02 -0.33175903218E+02  0.21491181480E+03  0.12500000000E+03 0.  0.
  9000006    1    1    2    0    0  0.88224768654E+02  0.38850559963E+02 -0.89561889002E+02  0.16527040804E+03  0.10000000000E+03 0.  0.
  9000006    1    1    2    0    0  0.64920292878E+02  0.38660972832E+02 -0.15301890473E+03  0.19779813056E+03  0.10000000000E+03 0.  0.
</event>
<event>
 5   0  0.7376500E-18  0.2262713E+03  0.7818609E-02  0.1146097E+00
       21   -1    0    0  502  501  0.00000000000E+00  0.00000000000E+00  0.76908910360E+02  0.76908910360E+02  0.00000000000E+00 0.  1.
       21   -1    0    0  501  502  0.00000000000E+00  0.00000000000E+00 -0.10559661976E+04  0.10559661976E+04  0.00000000000E+00 0.  1.
       25    1    1    2    0    0  0.20910057720E+02  0.81369578807E+02 -0.25393025557E+02  0.15273521079E+03  0.12500000000E+03 0.  0.
  9000006    1    1    2    0    0 -0.39388164931E+02 -0.40306235106E+02 -0.54943951020E+03  0.56130187555E+03  0.10000000000E+03 0.  0.
  9000006    1    1    2    0    0  0.18478107211E+02 -0.41063343700E+02 -0.40422475144E+03  0.41883802158E+03  0.10000000000E+03 0.  0.
</event>
<event>
 5   0  0.7376500E-18  0.2557170E+03  0.7818609E-02  0.1120985E+00
       21   -1    0    0  502  501  0.00000000000E+00  0.00000000000E+00  0.89935619900E+02  0.89935619900E+02  0.00000000000E+00 0. -1.
       21   -1    0    0  501  502  0.00000000000E+00  0.00000000000E+00 -0.58349889560E+03  0.58349889560E+03  0.00000000000E+00 0. -1.
       25    1    1    2    0    0  0.11888972388E+03 -0.85614266214E+02 -0.28230946404E+03  0.34174288949E+03  0.12500000000E+03 0.  0.
  9000006    1    1    2    0    0 -0.70021743430E+02  0.32719877424E+02 -0.70896869308E+02  0.14491377094E+03  0.10000000000E+03 0.  0.
  9000006    1    1    2    0    0 -0.48867980455E+02  0.52894388790E+02 -0.14035694235E+03  0.18677785507E+03  0.10000000000E+03 0.  0.
</event>
<event>
 5   0  0.7376500E-18  0.4192475E+03  0.7818609E-02  0.1066078E+00
       21   -1    0    0  502  501  0.00000000000E+00  0.00000000000E+00  0.37090535816E+03  0.37090535816E+03  0.00000000000E+00 0.  1.
       21   -1    0    0  501  502  0.00000000000E+00  0.00000000000E+00 -0.24992801879E+03  0.24992801879E+03  0.00000000000E+00 0.  1.
       25    1    1    2    0    0 -0.13570162027E+03 -0.13298376653E+02  0.72954461174E+02  0.19884448690E+03  0.12500000000E+03 0.  0.
  9000006    1    1    2    0    0  0.20942451006E+02  0.11332381565E+03  0.14939394654E+03  0.21354021802E+03  0.10000000000E+03 0.  0.
  9000006    1    1    2    0    0  0.11475916926E+03 -0.10002543899E+03 -0.10137106834E+03  0.20844867203E+03  0.10000000000E+03 0.  0.
</event>
<event>
 5   0  0.7376500E-18  0.2226791E+03  0.7818609E-02  0.1153008E+00
       21   -1    0    0  502  501  0.00000000000E+00  0.00000000000E+00  0.67571620791E+02  0.67571620791E+02  0.00000000000E+00 0. -1.
       21   -1    0    0  501  502  0.00000000000E+00  0.00000000000E+00 -0.53355584845E+03  0.53355584845E+03  0.00000000000E+00 0. -1.
       25    1    1    2    0    0  0.32498730717E+02 -0.36193799215E+02 -0.28200029475E+03  0.31227443834E+03  0.12500000000E+03 0.  0.
  9000006    1    1    2    0    0  0.62852216098E+01 -0.10839877636E+02 -0.55703928013E+02  0.11515178919E+03  0.10000000000E+03 0.  0.
  9000006    1    1    2    0    0 -0.38783952327E+02  0.47033676851E+02 -0.12828000489E+03  0.17370124171E+03  0.10000000000E+03 0.  0.
</event>
<event>
 5   0  0.7376500E-18  0.3076412E+03  0.7818609E-02  0.1109882E+00
       21   -1    0    0  502  501  0.00000000000E+00  0.00000000000E+00  0.20628850590E+03  0.20628850590E+03  0.00000000000E+00 0. -1.
       21   -1    0    0  501  502  0.00000000000E+00  0.00000000000E+00 -0.27585969809E+03  0.27585969809E+03  0.00000000000E+00 0. -1.
       25    1    1    2    0    0 -0.53190749986E+02  0.54432649148E+02 -0.93358885302E+02  0.17358873996E+03  0.12500000000E+03 0.  0.
  9000006    1    1    2    0    0 -0.38684864330E+02 -0.55258734536E+02 -0.73729995629E+02  0.14137241147E+03  0.10000000000E+03 0.  0.
  9000006    1    1    2    0    0  0.91875614316E+02  0.82608538788E+00  0.97517688743E+02  0.16718705255E+03  0.10000000000E+03 0.  0.
</event>
<event>
 5   0  0.7376500E-18  0.3585543E+03  0.7818609E-02  0.1074284E+00
       21   -1    0    0  502  501  0.00000000000E+00  0.00000000000E+00  0.10767707932E+03  0.10767707932E+03  0.00000000000E+00 0.  1.
       21   -1    0    0  501  502  0.00000000000E+00  0.00000000000E+00 -0.82097729847E+03  0.82097729847E+03  0.00000000000E+00 0.  1.
       25    1    1    2    0    0 -0.19655253302E+03  0.38417307019E+02 -0.28057688266E+03  0.36668402583E+03  0.12500000000E+03 0.  0.
  9000006    1    1    2    0    0  0.79141851836E+02 -0.10602538403E+03 -0.31663891398E+03  0.35744232628E+03  0.10000000000E+03 0.  0.
  9000006    1    1    2    0    0  0.11741068119E+03  0.67608077014E+02 -0.11608442251E+03  0.20452802567E+03  0.10000000000E+03 0.  0.
</event>
<event>
 5   0  0.7376500E-18  0.6446583E+03  0.7818609E-02  0.9816854E-01
       21   -1    0    0  502  501  0.00000000000E+00  0.00000000000E+00  0.20249212076E+03  0.20249212076E+03  0.00000000000E+00 0. -1.
       21   -1    0    0  501  502  0.00000000000E+00  0.00000000000E+00 -0.51308708158E+03  0.51308708158E+03  0.00000000000E+00 0. -1.
       25    1    1    2    0    0  0.18415285995E+03  0.77797282543E+02 -0.12508734565E+03  0.26690173667E+03  0.12500000000E+03 0.  0.
  9000006    1    1    2    0    0  0.64391323724E+02  0.28706377589E+01 -0.12281572895E+02  0.11960485009E+03  0.10000000000E+03 0.  0.
  9000006    1    1    2    0    0 -0.24854418367E+03 -0.80667920302E+02 -0.17322604227E+03  0.32907261558E+03  0.10000000000E+03 0.  0.
</event>
<event>
 5   0  0.7376500E-18  0.2580149E+03  0.7818609E-02  0.1133181E+00
       21   -1    0    0  502  501  0.00000000000E+00  0.00000000000E+00  0.71774282382E+03  0.71774282382E+03  0.00000000000E+00 0. -1.
       21   -1    0    0  501  502  0.00000000000E+00  0.00000000000E+00 -0.78382511479E+02  0.78382511479E+02  0.00000000000E+00 0. -1.
       25    1    1    2    0    0  0.56964450397E+01 -0.59921567742E+02  0.46365016614E+03  0.48396231292E+03  0.12500000000E+03 0.  0.
  9000006    1    1    2    0    0  0.46620541525E+02  0.63507662552E+02  0.14928686031E+03  0.19619700496E+03  0.10000000000E+03 0.  0.
  9000006    1    1    2    0    0 -0.52316986565E+02 -0.35860948095E+01  0.26423285900E+02  0.11596601742E+03  0.10000000000E+03 0.  0.
</event>
<event>
 5   0  0.7376500E-18  0.3404571E+03  0.7818609E-02  0.1092426E+00
       21   -1    0    0  502  501  0.00000000000E+00  0.00000000000E+00  0.63079588356E+03  0.63079588356E+03  0.00000000000E+00 0. -1.
       21   -1    0    0  501  502  0.00000000000E+00  0.00000000000E+00 -0.11746272385E+03  0.11746272385E+03  0.00000000000E+00 0. -1.
       25    1    1    2    0    0 -0.75169157130E+02  0.86692417409E+02  0.30527223555E+03  0.34925938101E+03  0.12500000000E+03 0.  0.
  9000006    1    1    2    0    0  0.46607365797E+02 -0.17055529939E+03  0.15386868811E+03  0.25482725498E+03  0.10000000000E+03 0.  0.
  9000006    1    1    2    0    0  0.28561791333E+02  0.83862881980E+02  0.54192236039E+02  0.14417197143E+03  0.10000000000E+03 0.  0.
</event>
<event>
 5   0  0.7376500E-18  0.2433868E+03  0.7818609E-02  0.1130881E+00
       21   -1    0    0  502  501  0.00000000000E+00  0.00000000000E+00  0.13868253698E+03  0.13868253698E+03  0.00000000000E+00 0.  1.
       21   -1    0    0  501  502  0.00000000000E+00  0.00000000000E+00 -0.56489729311E+03  0.56489729311E+03  0.00000000000E+00 0.  1.
       25    1    1    2    0    0 -0.91695325017E+02  0.80879268101E+02  0.38448881229E+02  0.17903297212E+03  0.12500000000E+03 0.  0.
  9000006    1    1    2    0    0  0.21536777522E+02 -0.14243453633E+02 -0.17523734156E+03  0.20340804958E+03  0.10000000000E+03 0.  0.
  9000006    1    1    2    0    0  0.70158547495E+02 -0.66635814468E+02 -0.28942629579E+03  0.32113880839E+03  0.10000000000E+03 0.  0.
</event>
<event>
 5   0  0.7376500E-18  0.2525828E+03  0.7818609E-02  0.1128262E+00
       21   -1    0    0  502  501  0.00000000000E+00  0.00000000000E+00  0.85615558107E+02  0.85615558107E+02  0.00000000000E+00 0. -1.
       21   -1    0    0  501  502  0.00000000000E+00  0.00000000000E+00 -0.57170824385E+03  0.57170824385E+03  0.00000000000E+00 0. -1.
       25    1    1    2    0    0  0.56821016334E+02 -0.94788021182E+02 -0.95699767223E+02  0.19234563240E+03  0.12500000000E+03 0.  0.
  9000006    1    1    2    0    0 -0.76417390469E+01  0.40088188969E+02 -0.27516197262E+03  0.29560035563E+03  0.10000000000E+03 0.  0.
  9000006    1    1    2    0    0 -0.49179277287E+02  0.54699832213E+02 -0.11523094590E+03  0.16937781393E+03  0.10000000000E+03 0.  0.
</event>
<event>
 5   0  0.7376500E-18  0.4841556E+03  0.7818609E-02  0.1017999E+00
       21   -1    0    0  502  501  0.00000000000E+00  0.00000000000E+00  0.15676657655E+02  0.15676657655E+02  0.00000000000E+00 0.  1.
       21   -1    0    0  501  502  0.00000000000E+00  0.00000000000E+00 -0.37381474325E+04  0.37381474325E+04  0.00000000000E+00 0.  1.
       25    1    1    2    0    0 -0.37162884608E+02  0.10460129482E+02 -0.14365157904E+04  0.14424607829E+04  0.12500000000E+03 0.  0.
  9000006    1    1    2    0    0 -0.64822937479E+02  0.87236263328E+02 -0.14614908078E+04  0.14689341579E+04  0.10000000000E+03 0.  0.
  9000006    1    1    2    0    0  0.10198582209E+03 -0.97696392810E+02 -0.82446417671E+03  0.84242914939E+03  0.10000000000E+03 0.  0.
</event>
<event>
 5   0  0.7376500E-18  0.3530239E+03  0.7818609E-02  0.1066476E+00
       21   -1    0    0  502  501  0.00000000000E+00  0.00000000000E+00  0.10468261571E+04  0.10468261571E+04  0.00000000000E+00 0. -1.
       21   -1    0    0  501  502  0.00000000000E+00  0.00000000000E+00 -0.10525639947E+03  0.10525639947E+03  0.00000000000E+00 0. -1.
       25    1    1    2    0    0 -0.39304822534E+02 -0.27701413826E+03  0.50414707531E+03  0.58997540238E+03  0.12500000000E+03 0.  0.
  9000006    1    1    2    0    0  0.34155598628E+02  0.19815213470E+03  0.25841152649E+03  0.34235564904E+03  0.10000000000E+03 0.  0.
  9000006    1    1    2    0    0  0.51492239059E+01  0.78862003555E+02  0.17901115586E+03  0.21975150519E+03  0.10000000000E+03 0.  0.
</event>
<event>
 5   0  0.7376500E-18  0.3078264E+03  0.7818609E-02  0.1108032E+00
       21   -1    0    0  502  501  0.00000000000E+00  0.00000000000E+00  0.26682301825E+03  0.26682301825E+03  0.00000000000E+00 0. -1.
       21   -1    0    0  501  502  0.00000000000E+00  0.00000000000E+00 -0.23231556867E+03  0.23231556867E+03  0.00000000000E+00 0. -1.
       25    1    1    2    0    0 -0.32465318499E+02  0.82304866437E+02 -0.77412202994E+02  0.17159760230E+03  0.12500000000E+03 0.  0.
  9000006    1    1    2    0    0 -0.64670368824E+02  0.34673538559E+02  0.28093731431E+02  0.12717613230E+03  0.10000000000E+03 0.  0.
  9000006    1    1    2    0    0  0.97135687323E+02 -0.11697840500E+03  0.83825921148E+02  0.20036485232E+03  0.10000000000E+03 0.  0.
</event>
<event>
 5   0  0.7376500E-18  0.3295730E+03  0.7818609E-02  0.1105206E+00
       21   -1    0    0  502  501  0.00000000000E+00  0.00000000000E+00  0.10341517718E+03  0.10341517718E+03  0.00000000000E+00 0. -1.
       21   -1    0    0  501  502  0.00000000000E+00  0.00000000000E+00 -0.55747378021E+03  0.55747378021E+03  0.00000000000E+00 0. -1.
       25    1    1    2    0    0  0.40361477389E+02 -0.27279608092E+02 -0.21621926280E+03  0.25445823917E+03  0.12500000000E+03 0.  0.
  9000006    1    1    2    0    0  0.78888694840E+02  0.36729995320E+02 -0.20956443516E+03  0.24797131127E+03  0.10000000000E+03 0.  0.
  9000006    1    1    2    0    0 -0.11925017223E+03 -0.94503872286E+01 -0.28274905068E+02  0.15845940695E+03  0.10000000000E+03 0.  0.
</event>
<event>
 5   0  0.7376500E-18  0.2359030E+03  0.7818609E-02  0.1147167E+00
       21   -1    0    0  502  501  0.00000000000E+00  0.00000000000E+00  0.12552366275E+03  0.12552366275E+03  0.00000000000E+00 0.  1.
       21   -1    0    0  501  502  0.00000000000E+00  0.00000000000E+00 -0.35613010692E+03  0.35613010692E+03  0.00000000000E+00 0.  1.
       25    1    1    2    0    0  0.31192679870E+02  0.13684099453E+02  0.27011906831E+02  0.13234379837E+03  0.12500000000E+03 0.  0.
  9000006    1    1    2    0    0 -0.67262887766E+02 -0.27227994639E+02 -0.17388323677E+03  0.21330972737E+03  0.10000000000E+03 0.  0.
  9000006    1    1    2    0    0  0.36070207896E+02  0.13543895186E+02 -0.83735114229E+02  0.13600024393E+03  0.10000000000E+03 0.  0.
</event>
<event>
 5   0  0.7376500E-18  0.4010547E+03  0.7818609E-02  0.1071115E+00
       21   -1    0    0  502  501  0.00000000000E+00  0.00000000000E+00  0.26015664761E+03  0.26015664761E+03  0.00000000000E+00 0.  1.
       21   -1    0    0  501  502  0.00000000000E+00  0.00000000000E+00 -0.14139639497E+04  0.14139639497E+04  0.00000000000E+00 0.  1.
       25    1    1    2    0    0  0.13478402791E+03  0.67946296332E+01  0.19433456488E+03  0.26758890911E+03  0.12500000000E+03 0.  0.
  9000006    1    1    2    0    0 -0.14179526183E+03  0.13761720129E+03 -0.65414219274E+03  0.69061306003E+03  0.10000000000E+03 0.  0.
  9000006    1    1    2    0    0  0.70112339231E+01 -0.14441183092E+03 -0.69399967426E+03  0.71591862819E+03  0.10000000000E+03 0.  0.
</event>
<event>
 5   0  0.7376500E-18  0.3073007E+03  0.7818609E-02  0.1088930E+00
       21   -1    0    0  502  501  0.00000000000E+00  0.00000000000E+00  0.32337386570E+03  0.32337386570E+03  0.00000000000E+00 0. -1.
       21   -1    0    0  501  502  0.00000000000E+00  0.00000000000E+00 -0.24882956145E+03  0.24882956145E+03  0.00000000000E+00 0. -1.
       25    1    1    2    0    0 -0.50952809977E+01  0.21996446051E+03 -0.10765987595E+02  0.25328093546E+03  0.12500000000E+03 0.  0.
  9000006    1    1    2    0    0  0.57543653440E+01 -0.14322965241E+03  0.81416630336E+02  0.19281212032E+03  0.10000000000E+03 0.  0.
  9000006    1    1    2    0    0 -0.65908434629E+00 -0.76734808106E+02  0.38936615061E+01  0.12611037137E+03  0.10000000000E+03 0.  0.
</event>
<event>
 5   0  0.7376500E-18  0.2753643E+03  0.7818609E-02  0.1128005E+00
       21   -1    0    0  502  501  0.00000000000E+00  0.00000000000E+00  0.19752515215E+03  0.19752515215E+03  0.00000000000E+00 0. -1.
       21   -1    0    0  501  502  0.00000000000E+00  0.00000000000E+00 -0.36160953281E+03  0.36160953281E+03  0.00000000000E+00 0. -1.
       25    1    1    2    0    0  0.19214520546E+01  0.34110764016E+02  0.11047100286E+03  0.17028234985E+03  0.12500000000E+03 0.  0.
  9000006    1    1    2    0    0  0.87197001792E+02  0.10792568472E+02 -0.11689092766E+03  0.17715328285E+03  0.10000000000E+03 0.  0.
  9000006    1    1    2    0    0 -0.89118453847E+02 -0.44903332488E+02 -0.15766445586E+03  0.21169905226E+03  0.10000000000E+03 0.  0.
</event>
<event>
 5   0  0.7376500E-18  0.2590850E+03  0.7818609E-02  0.1126918E+00
       21   -1    0    0  502  501  0.00000000000E+00  0.00000000000E+00  0.22554289622E+03  0.22554289622E+03  0.00000000000E+00 0.  1.
       21   -1    0    0  501  502  0.00000000000E+00  0.00000000000E+00 -0.21921528168E+03  0.21921528168E+03  0.00000000000E+00 0.  1.
       25    1    1    2    0    0 -0.63136367567E+02  0.76991900604E+02 -0.70286476548E+02  0.17458276677E+03  0.12500000000E+03 0.  0.
  9000006    1    1    2    0    0  0.38117385182E+02  0.28509780502E+02  0.43606200629E+02  0.11902622976E+03  0.10000000000E+03 0.  0.
  9000006    1    1    2    0    0  0.25018982385E+02 -0.10550168111E+03  0.33007890452E+02  0.15114918137E+03  0.10000000000E+03 0.  0.
</event>
<event>
 5   0  0.7376500E-18  0.2326867E+03  0.7818609E-02  0.1142585E+00
       21   -1    0    0  502  501  0.00000000000E+00  0.00000000000E+00  0.40644330457E+03  0.40644330457E+03  0.00000000000E+00 0. -1.
       21   -1    0    0  501  502  0.00000000000E+00  0.00000000000E+00 -0.90384794017E+02  0.90384794017E+02  0.00000000000E+00 0. -1.
       25    1    1    2    0    0  0.77506184552E+02  0.32546674809E+02  0.12601467420E+03  0.19639550096E+03  0.12500000000E+03 0.  0.
  9000006    1    1    2    0    0 -0.19902747054E+02 -0.47382967747E+02  0.12082844407E+03  0.16504780480E+03  0.10000000000E+03 0.  0.
  9000006    1    1    2    0    0 -0.57603437499E+02  0.14836292937E+02  0.69215392288E+02  0.13538479283E+03  0.10000000000E+03 0.  0.
</event>
<event>
 5   0  0.7376500E-18  0.2672287E+03  0.7818609E-02  0.1120745E+00
       21   -1    0    0  502  501  0.00000000000E+00  0.00000000000E+00  0.43630726011E+03  0.43630726011E+03  0.00000000000E+00 0.  1.
       21   -1    0    0  501  502  0.00000000000E+00  0.00000000000E+00 -0.20967259534E+03  0.20967259534E+03  0.00000000000E+00 0.  1.
       25    1    1    2    0    0 -0.14830886780E+02  0.11391379834E+03  0.32054821099E+03  0.36272918855E+03  0.12500000000E+03 0.  0.
  9000006    1    1    2    0    0  0.10866900990E+02 -0.58594372090E+02  0.24149271688E+02  0.11888892842E+03  0.10000000000E+03 0.  0.
  9000006    1    1    2    0    0  0.39639857903E+01 -0.55319426254E+02 -0.11806281791E+03  0.16436173848E+03  0.10000000000E+03 0.  0.
</event>
<event>
 5   0  0.7376500E-18  0.3490876E+03  0.7818609E-02  0.1098337E+00
       21   -1    0    0  502  501  0.00000000000E+00  0.00000000000E+00  0.15855873490E+04  0.15855873490E+04  0.00000000000E+00 0.  1.
       21   -1    0    0  501  502  0.00000000000E+00  0.00000000000E+00 -0.37770208728E+02  0.37770208728E+02  0.00000000000E+00 0.  1.
       25    1    1    2    0    0  0.15970224477E+02  0.47978661955E+02  0.54817142910E+03  0.56451210417E+03  0.12500000000E+03 0.  0.
  9000006    1    1    2    0    0 -0.12739433126E+03 -0.99313021417E+02  0.58153363694E+03  0.61177917810E+03  0.10000000000E+03 0.  0.
  9000006    1    1    2    0    0  0.11142410678E+03  0.51334359463E+02  0.41811207420E+03  0.44706627543E+03  0.10000000000E+03 0.  0.
</event>
<event>
 5   0  0.7376500E-18  0.2551627E+03  0.7818609E-02  0.1126779E+00
       21   -1    0    0  502  501  0.00000000000E+00  0.00000000000E+00  0.43824366421E+03  0.43824366421E+03  0.00000000000E+00 0.  1.
       21   -1    0    0  501  502  0.00000000000E+00  0.00000000000E+00 -0.10222037999E+03  0.10222037999E+03  0.00000000000E+00 0.  1.
       25    1    1    2    0    0 -0.74559156409E+02 -0.83636113827E+02  0.12378409354E+03  0.20857029787E+03  0.12500000000E+03 0.  0.
  9000006    1    1    2    0    0 -0.18190088950E+02  0.21955638616E+02  0.10482902433E+03  0.14765518530E+03  0.10000000000E+03 0.  0.
  9000006    1    1    2    0    0  0.92749245359E+02  0.61680475211E+02  0.10741016634E+03  0.18423856103E+03  0.10000000000E+03 0.  0.
</event>
<event>
 5   0  0.7376500E-18  0.4086472E+03  0.7818609E-02  0.1048920E+00
       21   -1    0    0  502  501  0.00000000000E+00  0.00000000000E+00  0.29973742032E+03  0.29973742032E+03  0.00000000000E+00 0.  1.
       21   -1    0    0  501  502  0.00000000000E+00  0.00000000000E+00 -0.44736781909E+03  0.44736781909E+03  0.00000000000E+00 0.  1.
       25    1    1    2    0    0  0.23223016951E+03  0.18755890276E+03 -0.59114755815E+02  0.32898137940E+03  0.12500000000E+03 0.  0.
  9000006    1    1    2    0    0 -0.10657741946E+03  0.11057469003E+02  0.35917351597E+01  0.14660803021E+03  0.10000000000E+03 0.  0.
  9000006    1    1    2    0    0 -0.12565275004E+03 -0.19861637177E+03 -0.92107378112E+02  0.27151582980E+03  0.10000000000E+03 0.  0.
</event>
<event>
 5   0  0.7376500E-18  0.4643652E+03  0.7818609E-02  0.1052926E+00
       21   -1    0    0  502  501  0.00000000000E+00  0.00000000000E+00  0.37058494291E+03  0.37058494291E+03  0.00000000000E+00 0.  1.
       21   -1    0    0  501  502  0.00000000000E+00  0.00000000000E+00 -0.34386198988E+03  0.34386198988E+03  0.00000000000E+00 0.  1.
       25    1    1    2    0    0  0.11255551203E+03 -0.10210174698E+03  0.13372971271E+03  0.23791205536E+03  0.12500000000E+03 0.  0.
  9000006    1    1    2    0    0 -0.20003461353E+03  0.11185195980E+03  0.65585845532E+02  0.25850766073E+03  0.10000000000E+03 0.  0.
  9000006    1    1    2    0    0  0.87479101495E+02 -0.97502128197E+01 -0.17259260521E+03  0.21802721670E+03  0.10000000000E+03 0.  0.
</event>
<event>
 5   0  0.7376500E-18  0.2867716E+03  0.7818609E-02  0.1118627E+00
       21   -1    0    0  502  501  0.00000000000E+00  0.00000000000E+00  0.10888901853E+03  0.10888901853E+03  0.00000000000E+00 0. -1.
       21   -1    0    0  501  502  0.00000000000E+00  0.00000000000E+00 -0.53480943186E+03  0.53480943186E+03  0.00000000000E+00 0. -1.
       25    1    1    2    0    0 -0.24172796192E+02  0.69076976689E+02 -0.29461165651E+03  0.32829404645E+03  0.12500000000E+03 0.  0.
  9000006    1    1    2    0    0 -0.13800430235E+02  0.59898608497E+02 -0.36727743863E+02  0.12299277354E+03  0.10000000000E+03 0.  0.
  9000006    1    1    2    0    0  0.37973226427E+02 -0.12897558519E+03 -0.94581012961E+02  0.19241163040E+03  0.10000000000E+03 0.  0.
</event>
<event>
 5   0  0.7376500E-18  0.2537526E+03  0.7818609E-02  0.1126719E+00
       21   -1    0    0  502  501  0.00000000000E+00  0.00000000000E+00  0.28751955625E+04  0.28751955625E+04  0.00000000000E+00 0. -1.
       21   -1    0    0  501  502  0.00000000000E+00  0.00000000000E+00 -0.15682532683E+02  0.15682532683E+02  0.00000000000E+00 0. -1.
       25    1    1    2    0    0  0.12699439845E+02 -0.11589771450E+03  0.11458320443E+04  0.11585118169E+04  0.12500000000E+03 0.  0.
  9000006    1    1    2    0    0 -0.47783067491E+02  0.61158767109E+02  0.10949772026E+04  0.11022697902E+04  0.10000000000E+03 0.  0.
  9000006    1    1    2    0    0  0.35083627646E+02  0.54738947396E+02  0.61870378289E+03  0.63009648805E+03  0.10000000000E+03 0.  0.
</event>
<event>
 5   0  0.7376500E-18  0.3777402E+03  0.7818609E-02  0.1057245E+00
       21   -1    0    0  502  501  0.00000000000E+00  0.00000000000E+00  0.13077210763E+03  0.13077210763E+03  0.00000000000E+00 0. -1.
       21   -1    0    0  501  502  0.00000000000E+00  0.00000000000E+00 -0.14184366436E+04  0.14184366436E+04  0.00000000000E+00 0. -1.
       25    1    1    2    0    0  0.29436899957E+03 -0.49209939408E+02 -0.16201242301E+03  0.36186703532E+03  0.12500000000E+03 0.  0.
  9000006    1    1    2    0    0 -0.22343883429E+03  0.20013809839E+02 -0.63734736703E+03  0.68303523445E+03  0.10000000000E+03 0.  0.
  9000006    1    1    2    0    0 -0.70930165279E+02  0.29196129568E+02 -0.48830474593E+03  0.50430648144E+03  0.10000000000E+03 0.  0.
</event>
<event>
 5   0  0.7376500E-18  0.4691670E+03  0.7818609E-02  0.1037634E+00
       21   -1    0    0  502  501  0.00000000000E+00  0.00000000000E+00  0.12065456608E+04  0.12065456608E+04  0.00000000000E+00 0.  1.
       21   -1    0    0  501  502  0.00000000000E+00  0.00000000000E+00 -0.12877761793E+03  0.12877761793E+03  0.00000000000E+00 0.  1.
       25    1    1    2    0    0  0.24609930195E+03 -0.10784734313E+03  0.26849933800E+03  0.39989099808E+03  0.12500000000E+03 0.  0.
  9000006    1    1    2    0    0 -0.21089393221E+03  0.17644036057E+03  0.33566603799E+03  0.44528545961E+03  0.10000000000E+03 0.  0.
  9000006    1    1    2    0    0 -0.35205369737E+02 -0.68593017431E+02  0.47360266684E+03  0.49014682100E+03  0.10000000000E+03 0.  0.
</event>
<event>
 5   0  0.7376500E-18  0.2693739E+03  0.7818609E-02  0.1110755E+00
       21   -1    0    0  502  501  0.00000000000E+00  0.00000000000E+00  0.48907082613E+03  0.48907082613E+03  0.00000000000E+00 0.  1.
       21   -1    0    0  501  502  0.00000000000E+00  0.00000000000E+00 -0.11936247755E+03  0.11936247755E+03  0.00000000000E+00 0.  1.
       25    1    1    2    0    0  0.93209776686E+02 -0.14540482329E+03  0.17904088441E+03  0.27840844706E+03  0.12500000000E+03 0.  0.
  9000006    1    1    2    0    0 -0.54194852581E+02  0.55092609506E+02  0.67137059304E+02  0.14310717103E+03  0.10000000000E+03 0.  0.
  9000006    1    1    2    0    0 -0.39014924104E+02  0.90312213783E+02  0.12353040487E+03  0.18691768560E+03  0.10000000000E+03 0.  0.
</event>
<event>
 5   0  0.7376500E-18  0.2517560E+03  0.7818609E-02  0.1126278E+00
       21   -1    0    0  502  501  0.00000000000E+00  0.00000000000E+00  0.12027090734E+03  0.12027090734E+03  0.00000000000E+00 0. -1.
       21   -1    0    0  501  502  0.00000000000E+00  0.00000000000E+00 -0.57109603907E+03  0.57109603907E+03  0.00000000000E+00 0. -1.
       25    1    1    2    0    0  0.62001171699E+02  0.10882123558E+03 -0.22391086967E+01  0.17696389522E+03  0.12500000000E+03 0.  0.
  9000006    1    1    2    0    0 -0.60866575057E+02 -0.62375034983E+02 -0.17623231298E+03  0.22057473356E+03  0.10000000000E+03 0.  0.
  9000006    1    1    2    0    0 -0.11345966421E+01 -0.46446200595E+02 -0.27235371005E+03  0.29382831762E+03  0.10000000000E+03 0.  0.
</event>
<event>
 5   0  0.7376500E-18  0.4810750E+03  0.7818609E-02  0.1053353E+00
       21   -1    0    0  502  501  0.00000000000E+00  0.00000000000E+00  0.10002807683E+04  0.10002807683E+04  0.00000000000E+00 0.  1.
       21   -1    0    0  501  502  0.00000000000E+00  0.00000000000E+00 -0.10813759191E+03  0.10813759191E+03  0.00000000000E+00 0.  1.
       25    1    1    2    0    0  0.26914983893E+02 -0.11924747333E+03  0.27586624528E+03  0.32660612600E+03  0.12500000000E+03 0.  0.
  9000006    1    1    2    0    0  0.54195004478E+02  0.20729608583E+03  0.57309997456E+03  0.61996156861E+03  0.10000000000E+03 0.  0.
  9000006    1    1    2    0    0 -0.81109988371E+02 -0.88048612506E+02  0.43176956529E+02  0.16185066559E+03  0.10000000000E+03 0.  0.
</event>
<event>
 5   0  0.7376500E-18  0.2808856E+03  0.7818609E-02  0.1105198E+00
       21   -1    0    0  502  501  0.00000000000E+00  0.00000000000E+00  0.39180838014E+02  0.39180838014E+02  0.00000000000E+00 0. -1.
       21   -1    0    0  501  502  0.00000000000E+00  0.00000000000E+00 -0.15838796077E+04  0.15838796077E+04  0.00000000000E+00 0. -1.
       25    1    1    2    0    0 -0.14104893894E+03  0.10706827426E+03 -0.63404719598E+03  0.67007407446E+03  0.12500000000E+03 0.  0.
  9000006    1    1    2    0    0  0.10470307706E+03 -0.28426116523E+02 -0.43927915888E+03  0.46339719235E+03  0.10000000000E+03 0.  0.
  9000006    1    1    2    0    0  0.36345861873E+02 -0.78642157737E+02 -0.47137241481E+03  0.48958917890E+03  0.10000000000E+03 0.  0.
</event>
<event>
 5   0  0.7376500E-18  0.3471344E+03  0.7818609E-02  0.1096600E+00
       21   -1    0    0  502  501  0.00000000000E+00  0.00000000000E+00  0.11981157677E+03  0.11981157677E+03  0.00000000000E+00 0. -1.
       21   -1    0    0  501  502  0.00000000000E+00  0.00000000000E+00 -0.51488650009E+03  0.51488650009E+03  0.00000000000E+00 0. -1.
       25    1    1    2    0    0 -0.59842495660E+02 -0.37163356838E+02 -0.16288474973E+03  0.21706837880E+03  0.12500000000E+03 0.  0.
  9000006    1    1    2    0    0  0.16503693393E+03  0.33605254624E+02 -0.17123261704E+03  0.26016746883E+03  0.10000000000E+03 0.  0.
  9000006    1    1    2    0    0 -0.10519443827E+03  0.35581022146E+01 -0.60957556549E+02  0.15746222923E+03  0.10000000000E+03 0.  0.
</event>
<event>
 5   0  0.7376500E-18  0.4178587E+03  0.7818609E-02  0.1072269E+00
       21   -1    0    0  502  501  0.00000000000E+00  0.00000000000E+00  0.14233857857E+04  0.14233857857E+04  0.00000000000E+00 0. -1.
       21   -1    0    0  501  502  0.00000000000E+00  0.00000000000E+00 -0.58691014072E+02  0.58691014072E+02  0.00000000000E+00 0. -1.
       25    1    1    2    0    0 -0.95532994172E+02  0.90056512396E+01  0.31355079410E+03  0.35092271971E+03  0.12500000000E+03 0.  0.
  9000006    1    1    2    0    0  0.80945392737E+02 -0.17101836660E+03  0.69293299721E+03  0.72522794826E+03  0.10000000000E+03 0.  0.
  9000006    1    1    2    0    0  0.14587601435E+02  0.16201271536E+03  0.35821098031E+03  0.40592613179E+03  0.10000000000E+03 0.  0.
</event>
<event>
 5   0  0.7376500E-18  0.2908439E+03  0.7818609E-02  0.1097768E+00
       21   -1    0    0  502  501  0.00000000000E+00  0.00000000000E+00  0.37854497522E+03  0.37854497522E+03  0.00000000000E+00 0. -1.
       21   -1    0    0  501  502  0.00000000000E+00  0.00000000000E+00 -0.19794296923E+03  0.19794296923E+03  0.00000000000E+00 0. -1.
       25    1    1    2    0    0  0.81165427318E+02  0.18380366292E+03  0.15848288109E+03  0.28480420765E+03  0.12500000000E+03 0.  0.
  9000006    1    1    2    0    0 -0.34364091090E+02 -0.56575872934E+02 -0.94502287492E+01  0.12029558171E+03  0.10000000000E+03 0.  0.
  9000006    1    1    2    0    0 -0.46801336228E+02 -0.12722778998E+03  0.31569353648E+02  0.17138815509E+03  0.10000000000E+03 0.  0.
</event>
<event>
 5   0  0.7376500E-18  0.6496159E+03  0.7818609E-02  0.9807500E-01
       21   -1    0    0  502  501  0.00000000000E+00  0.00000000000E+00  0.76255714578E+03  0.76255714578E+03  0.00000000000E+00 0. -1.
       21   -1    0    0  501  502  0.00000000000E+00  0.00000000000E+00 -0.13835054045E+03  0.13835054045E+03  0.00000000000E+00 0. -1.
       25    1    1    2    0    0  0.21402064160E+03  0.30502424471E+02  0.30089497135E+03  0.39102175989E+03  0.12500000000E+03 0.  0.
  9000006    1    1    2    0    0 -0.23446821515E+03 -0.96613107183E+02  0.21914178796E+03  0.34976071767E+03  0.10000000000E+03 0.  0.
  9000006    1    1    2    0    0  0.20447573547E+02  0.66110682712E+02  0.10416984602E+03  0.16012520867E+03  0.10000000000E+03 0.  0.
</event>
<event>
 5   0  0.7376500E-18  0.3119863E+03  0.7818609E-02  0.1100049E+00
       21   -1    0    0  502  501  0.00000000000E+00  0.00000000000E+00  0.20262864356E+03  0.20262864356E+03  0.00000000000E+00 0.  1.
       21   -1    0    0  501  502  0.00000000000E+00  0.00000000000E+00 -0.29947223307E+03  0.29947223307E+03  0.00000000000E+00 0.  1.
       25    1    1    2    0    0  0.54290505623E+02  0.11862086872E+03 -0.37194563015E+02  0.18446356012E+03  0.12500000000E+03 0.  0.
  9000006    1    1    2    0    0 -0.11501371291E+03 -0.24095446391E+02  0.39138245052E+01  0.15435045422E+03  0.10000000000E+03 0.  0.
  9000006    1    1    2    0    0  0.60723207292E+02 -0.94525422327E+02 -0.63562851002E+02  0.16328686229E+03  0.10000000000E+03 0.  0.
</event>
<event>
 5   0  0.7376500E-18  0.3717723E+03  0.7818609E-02  0.1066984E+00
       21   -1    0    0  502  501  0.00000000000E+00  0.00000000000E+00  0.39796562379E+03  0.39796562379E+03  0.00000000000E+00 0. -1.
       21   -1    0    0  501  502  0.00000000000E+00  0.00000000000E+00 -0.29642212665E+03  0.29642212665E+03  0.00000000000E+00 0. -1.
       25    1    1    2    0    0 -0.20335016273E+03  0.99805445390E+02  0.17903101379E+03  0.31462599942E+03  0.12500000000E+03 0.  0.
  9000006    1    1    2    0    0  0.12034906946E+03  0.54976686470E+02 -0.79963956014E+01  0.16604299719E+03  0.10000000000E+03 0.  0.
  9000006    1    1    2    0    0  0.83001093274E+02 -0.15478213186E+03 -0.69491121055E+02  0.21371875382E+03  0.10000000000E+03 0.  0.
</event>
<event>
 5   0  0.7376500E-18  0.4312594E+03  0.7818609E-02  0.1043568E+00
       21   -1    0    0  502  501  0.00000000000E+00  0.00000000000E+00  0.73692814000E+03  0.73692814000E+03  0.00000000000E+00 0.  1.
       21   -1    0    0  501  502  0.00000000000E+00  0.00000000000E+00 -0.23302454728E+03  0.23302454728E+03  0.00000000000E+00 0.  1.
       25    1    1    2    0    0  0.29472407035E+03 -0.25176643960E+02  0.19973777340E+02  0.32174538509E+03  0.12500000000E+03 0.  0.
  9000006    1    1    2    0    0  0.87089441695E+01  0.36160515669E+02  0.16614691128E+03  0.19745436113E+03  0.10000000000E+03 0.  0.
  9000006    1    1    2    0    0 -0.30343301452E+03 -0.10983871709E+02  0.31778290410E+03  0.45075294106E+03  0.10000000000E+03 0.  0.
</event>
<event>
 5   0  0.7376500E-18  0.2833011E+03  0.7818609E-02  0.1107441E+00
       21   -1    0    0  502  501  0.00000000000E+00  0.00000000000E+00  0.16785078454E+03  0.16785078454E+03  0.00000000000E+00 0. -1.
       21   -1    0    0  501  502  0.00000000000E+00  0.00000000000E+00 -0.35007377216E+03  0.35007377216E+03  0.00000000000E+00 0. -1.
       25    1    1    2    0    0  0.15071027486E+03 -0.37987840155E+02 -0.51959089079E+02  0.20611018870E+03  0.12500000000E+03 0.  0.
  9000006    1    1    2    0    0 -0.11424705193E+03  0.75420875362E+02 -0.90553828378E+02  0.19219961797E+03  0.10000000000E+03 0.  0.
  9000006    1    1    2    0    0 -0.36463222931E+02 -0.37433035208E+02 -0.39710070157E+02  0.11961475002E+03  0.10000000000E+03 0.  0.
</event>
<event>
 5   0  0.7376500E-18  0.3545163E+03  0.7818609E-02  0.1067048E+00
       21   -1    0    0  502  501  0.00000000000E+00  0.00000000000E+00  0.39949401925E+03  0.39949401925E+03  0.00000000000E+00 0. -1.
       21   -1    0    0  501  502  0.00000000000E+00  0.00000000000E+00 -0.26951466051E+03  0.26951466051E+03  0.00000000000E+00 0. -1.
       25    1    1    2    0    0 -0.14196410731E+03 -0.23006802926E+03  0.95697201856E+02  0.31283871291E+03  0.12500000000E+03 0.  0.
  9000006    1    1    2    0    0  0.13121461424E+03  0.16463829367E+03  0.37874802429E+02  0.23613035254E+03  0.10000000000E+03 0.  0.
  9000006    1    1    2    0    0  0.10749493065E+02  0.65429735593E+02 -0.35926455444E+01  0.12003961431E+03  0.10000000000E+03 0.  0.
</event>
<event>
 5   0  0.7376500E-18  0.2660584E+03  0.7818609E-02  0.1112577E+00
       21   -1    0    0  502  501  0.00000000000E+00  0.00000000000E+00  0.21758192628E+04  0.21758192628E+04  0.00000000000E+00 0.  1.
       21   -1    0    0  501  502  0.00000000000E+00  0.00000000000E+00 -0.30439648630E+02  0.30439648630E+02  0.00000000000E+00 0.  1.
       25    1    1    2    0    0 -0.15341378263E+03 -0.73985116223E+02  0.13771715425E+04  0.13932824709E+04  0.12500000000E+03 0.  0.
  9000006    1    1    2    0    0  0.51902149658E+02  0.31215200527E+02  0.35951834806E+03  0.37804981745E+03  0.10000000000E+03 0.  0.
  9000006    1    1    2    0    0  0.10151163297E+03  0.42769915696E+02  0.40868972365E+03  0.43492662316E+03  0.10000000000E+03 0.  0.
</event>
<event>
 5   0  0.7376500E-18  0.2525594E+03  0.7818609E-02  0.1126969E+00
       21   -1    0    0  502  501  0.00000000000E+00  0.00000000000E+00  0.74485356870E+02  0.74485356870E+02  0.00000000000E+00 0. -1.
       21   -1    0    0  501  502  0.00000000000E+00  0.00000000000E+00 -0.10299233036E+04  0.10299233036E+04  0.00000000000E+00 0. -1.
       25    1    1    2    0    0 -0.52060655692E+02 -0.10654623722E+03 -0.74031433499E+02  0.18753150584E+03  0.12500000000E+03 0.  0.
  9000006    1    1    2    0    0 -0.88487644679E+01  0.88820593842E+02 -0.45551165029E+03  0.47482445395E+03  0.10000000000E+03 0.  0.
  9000006    1    1    2    0    0  0.60909420160E+02  0.17725643376E+02 -0.42589486298E+03  0.44205270071E+03  0.10000000000E+03 0.  0.
</event>
<event>
 5   0  0.7376500E-18  0.4279154E+03  0.7818609E-02  0.1043790E+00
       21   -1    0    0  502  501  0.00000000000E+00  0.00000000000E+00  0.42250719991E+03  0.42250719991E+03  0.00000000000E+00 0.  1.
       21   -1    0    0  501  502  0.00000000000E+00  0.00000000000E+00 -0.43678832432E+03  0.43678832432E+03  0.00000000000E+00 0.  1.
       25    1    1    2    0    0 -0.29476304576E+03 -0.64533821554E+02  0.19766543593E+03  0.38176758876E+03  0.12500000000E+03 0.  0.
  9000006    1    1    2    0    0  0.60011727181E+02  0.36934829732E+02  0.28752364851E+02  0.12566736860E+03  0.10000000000E+03 0.  0.
  9000006    1    1    2    0    0  0.23475131858E+03  0.27598991822E+02 -0.24069892520E+03  0.35186056686E+03  0.10000000000E+03 0.  0.
</event>
<event>
 5   0  0.7376500E-18  0.2893851E+03  0.7818609E-02  0.1111856E+00
       21   -1    0    0  502  501  0.00000000000E+00  0.00000000000E+00  0.90046645805E+02  0.90046645805E+02  0.00000000000E+00 0. -1.
       21   -1    0    0  501  502  0.00000000000E+00  0.00000000000E+00 -0.59682343940E+03  0.59682343940E+03  0.00000000000E+00 0. -1.
       25    1    1    2    0    0  0.96554153237E+02 -0.54898728123E+02 -0.13010643112E+03  0.21187085282E+03  0.12500000000E+03 0.  0.
  9000006    1    1    2    0    0 -0.13798984891E+03  0.57835160442E+01 -0.22342081851E+03  0.28105428230E+03  0.10000000000E+03 0.  0.
  9000006    1    1    2    0    0  0.41435695674E+02  0.49115212079E+02 -0.15324954397E+03  0.19394495008E+03  0.10000000000E+03 0.  0.
</event>
<event>
 5   0  0.7376500E-18  0.2023929E+03  0.7818609E-02  0.1168083E+00
       21   -1    0    0  502  501  0.00000000000E+00  0.00000000000E+00  0.10257808478E+04  0.10257808478E+04  0.00000000000E+00 0.  1.
       21   -1    0    0  501  502  0.00000000000E+00  0.00000000000E+00 -0.33626323153E+02  0.33626323153E+02  0.00000000000E+00 0.  1.
       25    1    1    2    0    0  0.14195058460E+02  0.11005817926E+01  0.16297878056E+03  0.20588781868E+03  0.12500000000E+03 0.  0.
  9000006    1    1    2    0    0 -0.13992718940E+02  0.11163469520E+02  0.40645385920E+03  0.41895722800E+03  0.10000000000E+03 0.  0.
  9000006    1    1    2    0    0 -0.20233952018E+00 -0.12264051313E+02  0.42272188484E+03  0.43456212424E+03  0.10000000000E+03 0.  0.
</event>
<event>
 5   0  0.7376500E-18  0.2555804E+03  0.7818609E-02  0.1138581E+00
       21   -1    0    0  502  501  0.00000000000E+00  0.00000000000E+00  0.42586242708E+03  0.42586242708E+03  0.00000000000E+00 0.  1.
       21   -1    0    0  501  502  0.00000000000E+00  0.00000000000E+00 -0.99084120792E+02  0.99084120792E+02  0.00000000000E+00 0.  1.
       25    1    1    2    0    0  0.64301561423E+01 -0.23936125230E+01  0.21861362759E+02  0.12708263245E+03  0.12500000000E+03 0.  0.
  9000006    1    1    2    0    0 -0.44730431963E+02 -0.58480827347E+02  0.20309168643E+03  0.23804842324E+03  0.10000000000E+03 0.  0.
  9000006    1    1    2    0    0  0.38300275821E+02  0.60874439870E+02  0.10182525710E+03  0.15981549218E+03  0.10000000000E+03 0.  0.
</event>
</LesHouchesEvents>
